Start File for LAMMPS   
      
24508 atoms     
14136 bonds     
7068 angles     
      
6 atom types    
1 bond types    
1 angle types    
      
-20 165.395 xlo xhi   
0 35.072 ylo yhi   
0 57.718 zlo zhi   
      
Masses      
      
1 15.9994     
2 1.008     
3 22.9898     
4 35.453     
5 12.0107     
6 12.0107     
      
Bond Coeffs     
      
1 450 0.9572    
      
Angle Coeffs     
      
1 55 104.52    
      
Atoms      
      
1 1 1 -1.0484 4.4925 2.4227 1.5189
2 1 2 0.5242 3.7355 1.8368 1.5189
3 1 2 0.5242 5.2495 1.8368 1.5189
4 2 1 -1.0484 7.4775 2.4227 1.5189
5 2 2 0.5242 6.7205 1.8368 1.5189
6 2 2 0.5242 8.2345 1.8368 1.5189
7 3 1 -1.0484 10.4625 2.4227 1.5189
8 3 2 0.5242 9.7055 1.8368 1.5189
9 3 2 0.5242 11.2195 1.8368 1.5189
10 4 1 -1.0484 13.4475 2.4227 1.5189
11 4 2 0.5242 12.6905 1.8368 1.5189
12 4 2 0.5242 14.2045 1.8368 1.5189
13 5 1 -1.0484 16.4325 2.4227 1.5189
14 5 2 0.5242 15.6755 1.8368 1.5189
15 5 2 0.5242 17.1895 1.8368 1.5189
16 6 1 -1.0484 19.4175 2.4227 1.5189
17 6 2 0.5242 18.6605 1.8368 1.5189
18 6 2 0.5242 20.1745 1.8368 1.5189
19 7 1 -1.0484 22.4025 2.4227 1.5189
20 7 2 0.5242 21.6455 1.8368 1.5189
21 7 2 0.5242 23.1595 1.8368 1.5189
22 8 1 -1.0484 25.3875 2.4227 1.5189
23 8 2 0.5242 24.6305 1.8368 1.5189
24 8 2 0.5242 26.1445 1.8368 1.5189
25 9 1 -1.0484 28.3725 2.4227 1.5189
26 9 2 0.5242 27.6155 1.8368 1.5189
27 9 2 0.5242 29.1295 1.8368 1.5189
28 10 1 -1.0484 31.3575 2.4227 1.5189
29 10 2 0.5242 30.6005 1.8368 1.5189
30 10 2 0.5242 32.1145 1.8368 1.5189
31 11 1 -1.0484 34.3425 2.4227 1.5189
32 11 2 0.5242 33.5855 1.8368 1.5189
33 11 2 0.5242 35.0995 1.8368 1.5189
34 12 1 -1.0484 37.3275 2.4227 1.5189
35 12 2 0.5242 36.5705 1.8368 1.5189
36 12 2 0.5242 38.0845 1.8368 1.5189
37 13 1 -1.0484 40.3125 2.4227 1.5189
38 13 2 0.5242 39.5555 1.8368 1.5189
39 13 2 0.5242 41.0695 1.8368 1.5189
40 14 1 -1.0484 43.2975 2.4227 1.5189
41 14 2 0.5242 42.5405 1.8368 1.5189
42 14 2 0.5242 44.0545 1.8368 1.5189
43 15 1 -1.0484 46.2825 2.4227 1.5189
44 15 2 0.5242 45.5255 1.8368 1.5189
45 15 2 0.5242 47.0395 1.8368 1.5189
46 16 1 -1.0484 49.2675 2.4227 1.5189
47 16 2 0.5242 48.5105 1.8368 1.5189
48 16 2 0.5242 50.0245 1.8368 1.5189
49 17 1 -1.0484 52.2525 2.4227 1.5189
50 17 2 0.5242 51.4955 1.8368 1.5189
51 17 2 0.5242 53.0095 1.8368 1.5189
52 18 1 -1.0484 55.2375 2.4227 1.5189
53 18 2 0.5242 54.4805 1.8368 1.5189
54 18 2 0.5242 55.9945 1.8368 1.5189
55 19 1 -1.0484 58.2225 2.4227 1.5189
56 19 2 0.5242 57.4655 1.8368 1.5189
57 19 2 0.5242 58.9795 1.8368 1.5189
58 20 1 -1.0484 4.4925 5.3453 1.5189
59 20 2 0.5242 3.7355 4.7595 1.5189
60 20 2 0.5242 5.2495 4.7595 1.5189
61 21 1 -1.0484 7.4775 5.3453 1.5189
62 21 2 0.5242 6.7205 4.7595 1.5189
63 21 2 0.5242 8.2345 4.7595 1.5189
64 22 1 -1.0484 10.4625 5.3453 1.5189
65 22 2 0.5242 9.7055 4.7595 1.5189
66 22 2 0.5242 11.2195 4.7595 1.5189
67 23 1 -1.0484 13.4475 5.3453 1.5189
68 23 2 0.5242 12.6905 4.7595 1.5189
69 23 2 0.5242 14.2045 4.7595 1.5189
70 24 1 -1.0484 16.4325 5.3453 1.5189
71 24 2 0.5242 15.6755 4.7595 1.5189
72 24 2 0.5242 17.1895 4.7595 1.5189
73 25 1 -1.0484 19.4175 5.3453 1.5189
74 25 2 0.5242 18.6605 4.7595 1.5189
75 25 2 0.5242 20.1745 4.7595 1.5189
76 26 1 -1.0484 22.4025 5.3453 1.5189
77 26 2 0.5242 21.6455 4.7595 1.5189
78 26 2 0.5242 23.1595 4.7595 1.5189
79 27 1 -1.0484 25.3875 5.3453 1.5189
80 27 2 0.5242 24.6305 4.7595 1.5189
81 27 2 0.5242 26.1445 4.7595 1.5189
82 28 1 -1.0484 28.3725 5.3453 1.5189
83 28 2 0.5242 27.6155 4.7595 1.5189
84 28 2 0.5242 29.1295 4.7595 1.5189
85 29 1 -1.0484 31.3575 5.3453 1.5189
86 29 2 0.5242 30.6005 4.7595 1.5189
87 29 2 0.5242 32.1145 4.7595 1.5189
88 30 1 -1.0484 34.3425 5.3453 1.5189
89 30 2 0.5242 33.5855 4.7595 1.5189
90 30 2 0.5242 35.0995 4.7595 1.5189
91 31 1 -1.0484 37.3275 5.3453 1.5189
92 31 2 0.5242 36.5705 4.7595 1.5189
93 31 2 0.5242 38.0845 4.7595 1.5189
94 32 1 -1.0484 40.3125 5.3453 1.5189
95 32 2 0.5242 39.5555 4.7595 1.5189
96 32 2 0.5242 41.0695 4.7595 1.5189
97 33 1 -1.0484 43.2975 5.3453 1.5189
98 33 2 0.5242 42.5405 4.7595 1.5189
99 33 2 0.5242 44.0545 4.7595 1.5189
100 34 1 -1.0484 46.2825 5.3453 1.5189
101 34 2 0.5242 45.5255 4.7595 1.5189
102 34 2 0.5242 47.0395 4.7595 1.5189
103 35 1 -1.0484 49.2675 5.3453 1.5189
104 35 2 0.5242 48.5105 4.7595 1.5189
105 35 2 0.5242 50.0245 4.7595 1.5189
106 36 1 -1.0484 52.2525 5.3453 1.5189
107 36 2 0.5242 51.4955 4.7595 1.5189
108 36 2 0.5242 53.0095 4.7595 1.5189
109 37 1 -1.0484 55.2375 5.3453 1.5189
110 37 2 0.5242 54.4805 4.7595 1.5189
111 37 2 0.5242 55.9945 4.7595 1.5189
112 38 1 -1.0484 58.2225 5.3453 1.5189
113 38 2 0.5242 57.4655 4.7595 1.5189
114 38 2 0.5242 58.9795 4.7595 1.5189
115 39 1 -1.0484 4.4925 8.268 1.5189
116 39 2 0.5242 3.7355 7.6821 1.5189
117 39 2 0.5242 5.2495 7.6821 1.5189
118 40 1 -1.0484 7.4775 8.268 1.5189
119 40 2 0.5242 6.7205 7.6821 1.5189
120 40 2 0.5242 8.2345 7.6821 1.5189
121 41 1 -1.0484 10.4625 8.268 1.5189
122 41 2 0.5242 9.7055 7.6821 1.5189
123 41 2 0.5242 11.2195 7.6821 1.5189
124 42 1 -1.0484 13.4475 8.268 1.5189
125 42 2 0.5242 12.6905 7.6821 1.5189
126 42 2 0.5242 14.2045 7.6821 1.5189
127 43 1 -1.0484 16.4325 8.268 1.5189
128 43 2 0.5242 15.6755 7.6821 1.5189
129 43 2 0.5242 17.1895 7.6821 1.5189
130 44 1 -1.0484 19.4175 8.268 1.5189
131 44 2 0.5242 18.6605 7.6821 1.5189
132 44 2 0.5242 20.1745 7.6821 1.5189
133 45 1 -1.0484 22.4025 8.268 1.5189
134 45 2 0.5242 21.6455 7.6821 1.5189
135 45 2 0.5242 23.1595 7.6821 1.5189
136 46 1 -1.0484 25.3875 8.268 1.5189
137 46 2 0.5242 24.6305 7.6821 1.5189
138 46 2 0.5242 26.1445 7.6821 1.5189
139 47 1 -1.0484 28.3725 8.268 1.5189
140 47 2 0.5242 27.6155 7.6821 1.5189
141 47 2 0.5242 29.1295 7.6821 1.5189
142 48 1 -1.0484 31.3575 8.268 1.5189
143 48 2 0.5242 30.6005 7.6821 1.5189
144 48 2 0.5242 32.1145 7.6821 1.5189
145 49 1 -1.0484 34.3425 8.268 1.5189
146 49 2 0.5242 33.5855 7.6821 1.5189
147 49 2 0.5242 35.0995 7.6821 1.5189
148 50 1 -1.0484 37.3275 8.268 1.5189
149 50 2 0.5242 36.5705 7.6821 1.5189
150 50 2 0.5242 38.0845 7.6821 1.5189
151 51 1 -1.0484 40.3125 8.268 1.5189
152 51 2 0.5242 39.5555 7.6821 1.5189
153 51 2 0.5242 41.0695 7.6821 1.5189
154 52 1 -1.0484 43.2975 8.268 1.5189
155 52 2 0.5242 42.5405 7.6821 1.5189
156 52 2 0.5242 44.0545 7.6821 1.5189
157 53 1 -1.0484 46.2825 8.268 1.5189
158 53 2 0.5242 45.5255 7.6821 1.5189
159 53 2 0.5242 47.0395 7.6821 1.5189
160 54 1 -1.0484 49.2675 8.268 1.5189
161 54 2 0.5242 48.5105 7.6821 1.5189
162 54 2 0.5242 50.0245 7.6821 1.5189
163 55 1 -1.0484 52.2525 8.268 1.5189
164 55 2 0.5242 51.4955 7.6821 1.5189
165 55 2 0.5242 53.0095 7.6821 1.5189
166 56 1 -1.0484 55.2375 8.268 1.5189
167 56 2 0.5242 54.4805 7.6821 1.5189
168 56 2 0.5242 55.9945 7.6821 1.5189
169 57 1 -1.0484 58.2225 8.268 1.5189
170 57 2 0.5242 57.4655 7.6821 1.5189
171 57 2 0.5242 58.9795 7.6821 1.5189
172 58 1 -1.0484 4.4925 11.1907 1.5189
173 58 2 0.5242 3.7355 10.6048 1.5189
174 58 2 0.5242 5.2495 10.6048 1.5189
175 59 1 -1.0484 7.4775 11.1907 1.5189
176 59 2 0.5242 6.7205 10.6048 1.5189
177 59 2 0.5242 8.2345 10.6048 1.5189
178 60 1 -1.0484 10.4625 11.1907 1.5189
179 60 2 0.5242 9.7055 10.6048 1.5189
180 60 2 0.5242 11.2195 10.6048 1.5189
181 61 1 -1.0484 13.4475 11.1907 1.5189
182 61 2 0.5242 12.6905 10.6048 1.5189
183 61 2 0.5242 14.2045 10.6048 1.5189
184 62 1 -1.0484 16.4325 11.1907 1.5189
185 62 2 0.5242 15.6755 10.6048 1.5189
186 62 2 0.5242 17.1895 10.6048 1.5189
187 63 1 -1.0484 19.4175 11.1907 1.5189
188 63 2 0.5242 18.6605 10.6048 1.5189
189 63 2 0.5242 20.1745 10.6048 1.5189
190 64 1 -1.0484 22.4025 11.1907 1.5189
191 64 2 0.5242 21.6455 10.6048 1.5189
192 64 2 0.5242 23.1595 10.6048 1.5189
193 65 1 -1.0484 25.3875 11.1907 1.5189
194 65 2 0.5242 24.6305 10.6048 1.5189
195 65 2 0.5242 26.1445 10.6048 1.5189
196 66 1 -1.0484 28.3725 11.1907 1.5189
197 66 2 0.5242 27.6155 10.6048 1.5189
198 66 2 0.5242 29.1295 10.6048 1.5189
199 67 1 -1.0484 31.3575 11.1907 1.5189
200 67 2 0.5242 30.6005 10.6048 1.5189
201 67 2 0.5242 32.1145 10.6048 1.5189
202 68 1 -1.0484 34.3425 11.1907 1.5189
203 68 2 0.5242 33.5855 10.6048 1.5189
204 68 2 0.5242 35.0995 10.6048 1.5189
205 69 1 -1.0484 37.3275 11.1907 1.5189
206 69 2 0.5242 36.5705 10.6048 1.5189
207 69 2 0.5242 38.0845 10.6048 1.5189
208 70 1 -1.0484 40.3125 11.1907 1.5189
209 70 2 0.5242 39.5555 10.6048 1.5189
210 70 2 0.5242 41.0695 10.6048 1.5189
211 71 1 -1.0484 43.2975 11.1907 1.5189
212 71 2 0.5242 42.5405 10.6048 1.5189
213 71 2 0.5242 44.0545 10.6048 1.5189
214 72 1 -1.0484 46.2825 11.1907 1.5189
215 72 2 0.5242 45.5255 10.6048 1.5189
216 72 2 0.5242 47.0395 10.6048 1.5189
217 73 1 -1.0484 49.2675 11.1907 1.5189
218 73 2 0.5242 48.5105 10.6048 1.5189
219 73 2 0.5242 50.0245 10.6048 1.5189
220 74 1 -1.0484 52.2525 11.1907 1.5189
221 74 2 0.5242 51.4955 10.6048 1.5189
222 74 2 0.5242 53.0095 10.6048 1.5189
223 75 1 -1.0484 55.2375 11.1907 1.5189
224 75 2 0.5242 54.4805 10.6048 1.5189
225 75 2 0.5242 55.9945 10.6048 1.5189
226 76 1 -1.0484 58.2225 11.1907 1.5189
227 76 2 0.5242 57.4655 10.6048 1.5189
228 76 2 0.5242 58.9795 10.6048 1.5189
229 77 1 -1.0484 4.4925 14.1133 1.5189
230 77 2 0.5242 3.7355 13.5275 1.5189
231 77 2 0.5242 5.2495 13.5275 1.5189
232 78 1 -1.0484 7.4775 14.1133 1.5189
233 78 2 0.5242 6.7205 13.5275 1.5189
234 78 2 0.5242 8.2345 13.5275 1.5189
235 79 1 -1.0484 10.4625 14.1133 1.5189
236 79 2 0.5242 9.7055 13.5275 1.5189
237 79 2 0.5242 11.2195 13.5275 1.5189
238 80 1 -1.0484 13.4475 14.1133 1.5189
239 80 2 0.5242 12.6905 13.5275 1.5189
240 80 2 0.5242 14.2045 13.5275 1.5189
241 81 1 -1.0484 16.4325 14.1133 1.5189
242 81 2 0.5242 15.6755 13.5275 1.5189
243 81 2 0.5242 17.1895 13.5275 1.5189
244 82 1 -1.0484 19.4175 14.1133 1.5189
245 82 2 0.5242 18.6605 13.5275 1.5189
246 82 2 0.5242 20.1745 13.5275 1.5189
247 83 1 -1.0484 22.4025 14.1133 1.5189
248 83 2 0.5242 21.6455 13.5275 1.5189
249 83 2 0.5242 23.1595 13.5275 1.5189
250 84 1 -1.0484 25.3875 14.1133 1.5189
251 84 2 0.5242 24.6305 13.5275 1.5189
252 84 2 0.5242 26.1445 13.5275 1.5189
253 85 1 -1.0484 28.3725 14.1133 1.5189
254 85 2 0.5242 27.6155 13.5275 1.5189
255 85 2 0.5242 29.1295 13.5275 1.5189
256 86 1 -1.0484 31.3575 14.1133 1.5189
257 86 2 0.5242 30.6005 13.5275 1.5189
258 86 2 0.5242 32.1145 13.5275 1.5189
259 87 1 -1.0484 34.3425 14.1133 1.5189
260 87 2 0.5242 33.5855 13.5275 1.5189
261 87 2 0.5242 35.0995 13.5275 1.5189
262 88 1 -1.0484 37.3275 14.1133 1.5189
263 88 2 0.5242 36.5705 13.5275 1.5189
264 88 2 0.5242 38.0845 13.5275 1.5189
265 89 1 -1.0484 40.3125 14.1133 1.5189
266 89 2 0.5242 39.5555 13.5275 1.5189
267 89 2 0.5242 41.0695 13.5275 1.5189
268 90 1 -1.0484 43.2975 14.1133 1.5189
269 90 2 0.5242 42.5405 13.5275 1.5189
270 90 2 0.5242 44.0545 13.5275 1.5189
271 91 1 -1.0484 46.2825 14.1133 1.5189
272 91 2 0.5242 45.5255 13.5275 1.5189
273 91 2 0.5242 47.0395 13.5275 1.5189
274 92 1 -1.0484 49.2675 14.1133 1.5189
275 92 2 0.5242 48.5105 13.5275 1.5189
276 92 2 0.5242 50.0245 13.5275 1.5189
277 93 1 -1.0484 52.2525 14.1133 1.5189
278 93 2 0.5242 51.4955 13.5275 1.5189
279 93 2 0.5242 53.0095 13.5275 1.5189
280 94 1 -1.0484 55.2375 14.1133 1.5189
281 94 2 0.5242 54.4805 13.5275 1.5189
282 94 2 0.5242 55.9945 13.5275 1.5189
283 95 1 -1.0484 58.2225 14.1133 1.5189
284 95 2 0.5242 57.4655 13.5275 1.5189
285 95 2 0.5242 58.9795 13.5275 1.5189
286 96 1 -1.0484 4.4925 17.036 1.5189
287 96 2 0.5242 3.7355 16.4501 1.5189
288 96 2 0.5242 5.2495 16.4501 1.5189
289 97 1 -1.0484 7.4775 17.036 1.5189
290 97 2 0.5242 6.7205 16.4501 1.5189
291 97 2 0.5242 8.2345 16.4501 1.5189
292 98 1 -1.0484 10.4625 17.036 1.5189
293 98 2 0.5242 9.7055 16.4501 1.5189
294 98 2 0.5242 11.2195 16.4501 1.5189
295 99 1 -1.0484 13.4475 17.036 1.5189
296 99 2 0.5242 12.6905 16.4501 1.5189
297 99 2 0.5242 14.2045 16.4501 1.5189
298 100 1 -1.0484 16.4325 17.036 1.5189
299 100 2 0.5242 15.6755 16.4501 1.5189
300 100 2 0.5242 17.1895 16.4501 1.5189
301 101 1 -1.0484 19.4175 17.036 1.5189
302 101 2 0.5242 18.6605 16.4501 1.5189
303 101 2 0.5242 20.1745 16.4501 1.5189
304 102 1 -1.0484 22.4025 17.036 1.5189
305 102 2 0.5242 21.6455 16.4501 1.5189
306 102 2 0.5242 23.1595 16.4501 1.5189
307 103 1 -1.0484 25.3875 17.036 1.5189
308 103 2 0.5242 24.6305 16.4501 1.5189
309 103 2 0.5242 26.1445 16.4501 1.5189
310 104 1 -1.0484 28.3725 17.036 1.5189
311 104 2 0.5242 27.6155 16.4501 1.5189
312 104 2 0.5242 29.1295 16.4501 1.5189
313 105 1 -1.0484 31.3575 17.036 1.5189
314 105 2 0.5242 30.6005 16.4501 1.5189
315 105 2 0.5242 32.1145 16.4501 1.5189
316 106 1 -1.0484 34.3425 17.036 1.5189
317 106 2 0.5242 33.5855 16.4501 1.5189
318 106 2 0.5242 35.0995 16.4501 1.5189
319 107 1 -1.0484 37.3275 17.036 1.5189
320 107 2 0.5242 36.5705 16.4501 1.5189
321 107 2 0.5242 38.0845 16.4501 1.5189
322 108 1 -1.0484 40.3125 17.036 1.5189
323 108 2 0.5242 39.5555 16.4501 1.5189
324 108 2 0.5242 41.0695 16.4501 1.5189
325 109 1 -1.0484 43.2975 17.036 1.5189
326 109 2 0.5242 42.5405 16.4501 1.5189
327 109 2 0.5242 44.0545 16.4501 1.5189
328 110 1 -1.0484 46.2825 17.036 1.5189
329 110 2 0.5242 45.5255 16.4501 1.5189
330 110 2 0.5242 47.0395 16.4501 1.5189
331 111 1 -1.0484 49.2675 17.036 1.5189
332 111 2 0.5242 48.5105 16.4501 1.5189
333 111 2 0.5242 50.0245 16.4501 1.5189
334 112 1 -1.0484 52.2525 17.036 1.5189
335 112 2 0.5242 51.4955 16.4501 1.5189
336 112 2 0.5242 53.0095 16.4501 1.5189
337 113 1 -1.0484 55.2375 17.036 1.5189
338 113 2 0.5242 54.4805 16.4501 1.5189
339 113 2 0.5242 55.9945 16.4501 1.5189
340 114 1 -1.0484 58.2225 17.036 1.5189
341 114 2 0.5242 57.4655 16.4501 1.5189
342 114 2 0.5242 58.9795 16.4501 1.5189
343 115 1 -1.0484 4.4925 19.9587 1.5189
344 115 2 0.5242 3.7355 19.3728 1.5189
345 115 2 0.5242 5.2495 19.3728 1.5189
346 116 1 -1.0484 7.4775 19.9587 1.5189
347 116 2 0.5242 6.7205 19.3728 1.5189
348 116 2 0.5242 8.2345 19.3728 1.5189
349 117 1 -1.0484 10.4625 19.9587 1.5189
350 117 2 0.5242 9.7055 19.3728 1.5189
351 117 2 0.5242 11.2195 19.3728 1.5189
352 118 1 -1.0484 13.4475 19.9587 1.5189
353 118 2 0.5242 12.6905 19.3728 1.5189
354 118 2 0.5242 14.2045 19.3728 1.5189
355 119 1 -1.0484 16.4325 19.9587 1.5189
356 119 2 0.5242 15.6755 19.3728 1.5189
357 119 2 0.5242 17.1895 19.3728 1.5189
358 120 1 -1.0484 19.4175 19.9587 1.5189
359 120 2 0.5242 18.6605 19.3728 1.5189
360 120 2 0.5242 20.1745 19.3728 1.5189
361 121 1 -1.0484 22.4025 19.9587 1.5189
362 121 2 0.5242 21.6455 19.3728 1.5189
363 121 2 0.5242 23.1595 19.3728 1.5189
364 122 1 -1.0484 25.3875 19.9587 1.5189
365 122 2 0.5242 24.6305 19.3728 1.5189
366 122 2 0.5242 26.1445 19.3728 1.5189
367 123 1 -1.0484 28.3725 19.9587 1.5189
368 123 2 0.5242 27.6155 19.3728 1.5189
369 123 2 0.5242 29.1295 19.3728 1.5189
370 124 1 -1.0484 31.3575 19.9587 1.5189
371 124 2 0.5242 30.6005 19.3728 1.5189
372 124 2 0.5242 32.1145 19.3728 1.5189
373 125 1 -1.0484 34.3425 19.9587 1.5189
374 125 2 0.5242 33.5855 19.3728 1.5189
375 125 2 0.5242 35.0995 19.3728 1.5189
376 126 1 -1.0484 37.3275 19.9587 1.5189
377 126 2 0.5242 36.5705 19.3728 1.5189
378 126 2 0.5242 38.0845 19.3728 1.5189
379 127 1 -1.0484 40.3125 19.9587 1.5189
380 127 2 0.5242 39.5555 19.3728 1.5189
381 127 2 0.5242 41.0695 19.3728 1.5189
382 128 1 -1.0484 43.2975 19.9587 1.5189
383 128 2 0.5242 42.5405 19.3728 1.5189
384 128 2 0.5242 44.0545 19.3728 1.5189
385 129 1 -1.0484 46.2825 19.9587 1.5189
386 129 2 0.5242 45.5255 19.3728 1.5189
387 129 2 0.5242 47.0395 19.3728 1.5189
388 130 1 -1.0484 49.2675 19.9587 1.5189
389 130 2 0.5242 48.5105 19.3728 1.5189
390 130 2 0.5242 50.0245 19.3728 1.5189
391 131 1 -1.0484 52.2525 19.9587 1.5189
392 131 2 0.5242 51.4955 19.3728 1.5189
393 131 2 0.5242 53.0095 19.3728 1.5189
394 132 1 -1.0484 55.2375 19.9587 1.5189
395 132 2 0.5242 54.4805 19.3728 1.5189
396 132 2 0.5242 55.9945 19.3728 1.5189
397 133 1 -1.0484 58.2225 19.9587 1.5189
398 133 2 0.5242 57.4655 19.3728 1.5189
399 133 2 0.5242 58.9795 19.3728 1.5189
400 134 1 -1.0484 4.4925 22.8813 1.5189
401 134 2 0.5242 3.7355 22.2955 1.5189
402 134 2 0.5242 5.2495 22.2955 1.5189
403 135 1 -1.0484 7.4775 22.8813 1.5189
404 135 2 0.5242 6.7205 22.2955 1.5189
405 135 2 0.5242 8.2345 22.2955 1.5189
406 136 1 -1.0484 10.4625 22.8813 1.5189
407 136 2 0.5242 9.7055 22.2955 1.5189
408 136 2 0.5242 11.2195 22.2955 1.5189
409 137 1 -1.0484 13.4475 22.8813 1.5189
410 137 2 0.5242 12.6905 22.2955 1.5189
411 137 2 0.5242 14.2045 22.2955 1.5189
412 138 1 -1.0484 16.4325 22.8813 1.5189
413 138 2 0.5242 15.6755 22.2955 1.5189
414 138 2 0.5242 17.1895 22.2955 1.5189
415 139 1 -1.0484 19.4175 22.8813 1.5189
416 139 2 0.5242 18.6605 22.2955 1.5189
417 139 2 0.5242 20.1745 22.2955 1.5189
418 140 1 -1.0484 22.4025 22.8813 1.5189
419 140 2 0.5242 21.6455 22.2955 1.5189
420 140 2 0.5242 23.1595 22.2955 1.5189
421 141 1 -1.0484 25.3875 22.8813 1.5189
422 141 2 0.5242 24.6305 22.2955 1.5189
423 141 2 0.5242 26.1445 22.2955 1.5189
424 142 1 -1.0484 28.3725 22.8813 1.5189
425 142 2 0.5242 27.6155 22.2955 1.5189
426 142 2 0.5242 29.1295 22.2955 1.5189
427 143 1 -1.0484 31.3575 22.8813 1.5189
428 143 2 0.5242 30.6005 22.2955 1.5189
429 143 2 0.5242 32.1145 22.2955 1.5189
430 144 1 -1.0484 34.3425 22.8813 1.5189
431 144 2 0.5242 33.5855 22.2955 1.5189
432 144 2 0.5242 35.0995 22.2955 1.5189
433 145 1 -1.0484 37.3275 22.8813 1.5189
434 145 2 0.5242 36.5705 22.2955 1.5189
435 145 2 0.5242 38.0845 22.2955 1.5189
436 146 1 -1.0484 40.3125 22.8813 1.5189
437 146 2 0.5242 39.5555 22.2955 1.5189
438 146 2 0.5242 41.0695 22.2955 1.5189
439 147 1 -1.0484 43.2975 22.8813 1.5189
440 147 2 0.5242 42.5405 22.2955 1.5189
441 147 2 0.5242 44.0545 22.2955 1.5189
442 148 1 -1.0484 46.2825 22.8813 1.5189
443 148 2 0.5242 45.5255 22.2955 1.5189
444 148 2 0.5242 47.0395 22.2955 1.5189
445 149 1 -1.0484 49.2675 22.8813 1.5189
446 149 2 0.5242 48.5105 22.2955 1.5189
447 149 2 0.5242 50.0245 22.2955 1.5189
448 150 1 -1.0484 52.2525 22.8813 1.5189
449 150 2 0.5242 51.4955 22.2955 1.5189
450 150 2 0.5242 53.0095 22.2955 1.5189
451 151 1 -1.0484 55.2375 22.8813 1.5189
452 151 2 0.5242 54.4805 22.2955 1.5189
453 151 2 0.5242 55.9945 22.2955 1.5189
454 152 1 -1.0484 58.2225 22.8813 1.5189
455 152 2 0.5242 57.4655 22.2955 1.5189
456 152 2 0.5242 58.9795 22.2955 1.5189
457 153 1 -1.0484 4.4925 25.804 1.5189
458 153 2 0.5242 3.7355 25.2181 1.5189
459 153 2 0.5242 5.2495 25.2181 1.5189
460 154 1 -1.0484 7.4775 25.804 1.5189
461 154 2 0.5242 6.7205 25.2181 1.5189
462 154 2 0.5242 8.2345 25.2181 1.5189
463 155 1 -1.0484 10.4625 25.804 1.5189
464 155 2 0.5242 9.7055 25.2181 1.5189
465 155 2 0.5242 11.2195 25.2181 1.5189
466 156 1 -1.0484 13.4475 25.804 1.5189
467 156 2 0.5242 12.6905 25.2181 1.5189
468 156 2 0.5242 14.2045 25.2181 1.5189
469 157 1 -1.0484 16.4325 25.804 1.5189
470 157 2 0.5242 15.6755 25.2181 1.5189
471 157 2 0.5242 17.1895 25.2181 1.5189
472 158 1 -1.0484 19.4175 25.804 1.5189
473 158 2 0.5242 18.6605 25.2181 1.5189
474 158 2 0.5242 20.1745 25.2181 1.5189
475 159 1 -1.0484 22.4025 25.804 1.5189
476 159 2 0.5242 21.6455 25.2181 1.5189
477 159 2 0.5242 23.1595 25.2181 1.5189
478 160 1 -1.0484 25.3875 25.804 1.5189
479 160 2 0.5242 24.6305 25.2181 1.5189
480 160 2 0.5242 26.1445 25.2181 1.5189
481 161 1 -1.0484 28.3725 25.804 1.5189
482 161 2 0.5242 27.6155 25.2181 1.5189
483 161 2 0.5242 29.1295 25.2181 1.5189
484 162 1 -1.0484 31.3575 25.804 1.5189
485 162 2 0.5242 30.6005 25.2181 1.5189
486 162 2 0.5242 32.1145 25.2181 1.5189
487 163 1 -1.0484 34.3425 25.804 1.5189
488 163 2 0.5242 33.5855 25.2181 1.5189
489 163 2 0.5242 35.0995 25.2181 1.5189
490 164 1 -1.0484 37.3275 25.804 1.5189
491 164 2 0.5242 36.5705 25.2181 1.5189
492 164 2 0.5242 38.0845 25.2181 1.5189
493 165 1 -1.0484 40.3125 25.804 1.5189
494 165 2 0.5242 39.5555 25.2181 1.5189
495 165 2 0.5242 41.0695 25.2181 1.5189
496 166 1 -1.0484 43.2975 25.804 1.5189
497 166 2 0.5242 42.5405 25.2181 1.5189
498 166 2 0.5242 44.0545 25.2181 1.5189
499 167 1 -1.0484 46.2825 25.804 1.5189
500 167 2 0.5242 45.5255 25.2181 1.5189
501 167 2 0.5242 47.0395 25.2181 1.5189
502 168 1 -1.0484 49.2675 25.804 1.5189
503 168 2 0.5242 48.5105 25.2181 1.5189
504 168 2 0.5242 50.0245 25.2181 1.5189
505 169 1 -1.0484 52.2525 25.804 1.5189
506 169 2 0.5242 51.4955 25.2181 1.5189
507 169 2 0.5242 53.0095 25.2181 1.5189
508 170 1 -1.0484 55.2375 25.804 1.5189
509 170 2 0.5242 54.4805 25.2181 1.5189
510 170 2 0.5242 55.9945 25.2181 1.5189
511 171 1 -1.0484 58.2225 25.804 1.5189
512 171 2 0.5242 57.4655 25.2181 1.5189
513 171 2 0.5242 58.9795 25.2181 1.5189
514 172 1 -1.0484 4.4925 28.7267 1.5189
515 172 2 0.5242 3.7355 28.1408 1.5189
516 172 2 0.5242 5.2495 28.1408 1.5189
517 173 1 -1.0484 7.4775 28.7267 1.5189
518 173 2 0.5242 6.7205 28.1408 1.5189
519 173 2 0.5242 8.2345 28.1408 1.5189
520 174 1 -1.0484 10.4625 28.7267 1.5189
521 174 2 0.5242 9.7055 28.1408 1.5189
522 174 2 0.5242 11.2195 28.1408 1.5189
523 175 1 -1.0484 13.4475 28.7267 1.5189
524 175 2 0.5242 12.6905 28.1408 1.5189
525 175 2 0.5242 14.2045 28.1408 1.5189
526 176 1 -1.0484 16.4325 28.7267 1.5189
527 176 2 0.5242 15.6755 28.1408 1.5189
528 176 2 0.5242 17.1895 28.1408 1.5189
529 177 1 -1.0484 19.4175 28.7267 1.5189
530 177 2 0.5242 18.6605 28.1408 1.5189
531 177 2 0.5242 20.1745 28.1408 1.5189
532 178 1 -1.0484 22.4025 28.7267 1.5189
533 178 2 0.5242 21.6455 28.1408 1.5189
534 178 2 0.5242 23.1595 28.1408 1.5189
535 179 1 -1.0484 25.3875 28.7267 1.5189
536 179 2 0.5242 24.6305 28.1408 1.5189
537 179 2 0.5242 26.1445 28.1408 1.5189
538 180 1 -1.0484 28.3725 28.7267 1.5189
539 180 2 0.5242 27.6155 28.1408 1.5189
540 180 2 0.5242 29.1295 28.1408 1.5189
541 181 1 -1.0484 31.3575 28.7267 1.5189
542 181 2 0.5242 30.6005 28.1408 1.5189
543 181 2 0.5242 32.1145 28.1408 1.5189
544 182 1 -1.0484 34.3425 28.7267 1.5189
545 182 2 0.5242 33.5855 28.1408 1.5189
546 182 2 0.5242 35.0995 28.1408 1.5189
547 183 1 -1.0484 37.3275 28.7267 1.5189
548 183 2 0.5242 36.5705 28.1408 1.5189
549 183 2 0.5242 38.0845 28.1408 1.5189
550 184 1 -1.0484 40.3125 28.7267 1.5189
551 184 2 0.5242 39.5555 28.1408 1.5189
552 184 2 0.5242 41.0695 28.1408 1.5189
553 185 1 -1.0484 43.2975 28.7267 1.5189
554 185 2 0.5242 42.5405 28.1408 1.5189
555 185 2 0.5242 44.0545 28.1408 1.5189
556 186 1 -1.0484 46.2825 28.7267 1.5189
557 186 2 0.5242 45.5255 28.1408 1.5189
558 186 2 0.5242 47.0395 28.1408 1.5189
559 187 1 -1.0484 49.2675 28.7267 1.5189
560 187 2 0.5242 48.5105 28.1408 1.5189
561 187 2 0.5242 50.0245 28.1408 1.5189
562 188 1 -1.0484 52.2525 28.7267 1.5189
563 188 2 0.5242 51.4955 28.1408 1.5189
564 188 2 0.5242 53.0095 28.1408 1.5189
565 189 1 -1.0484 55.2375 28.7267 1.5189
566 189 2 0.5242 54.4805 28.1408 1.5189
567 189 2 0.5242 55.9945 28.1408 1.5189
568 190 1 -1.0484 58.2225 28.7267 1.5189
569 190 2 0.5242 57.4655 28.1408 1.5189
570 190 2 0.5242 58.9795 28.1408 1.5189
571 191 1 -1.0484 4.4925 31.6493 1.5189
572 191 2 0.5242 3.7355 31.0635 1.5189
573 191 2 0.5242 5.2495 31.0635 1.5189
574 192 1 -1.0484 7.4775 31.6493 1.5189
575 192 2 0.5242 6.7205 31.0635 1.5189
576 192 2 0.5242 8.2345 31.0635 1.5189
577 193 1 -1.0484 10.4625 31.6493 1.5189
578 193 2 0.5242 9.7055 31.0635 1.5189
579 193 2 0.5242 11.2195 31.0635 1.5189
580 194 1 -1.0484 13.4475 31.6493 1.5189
581 194 2 0.5242 12.6905 31.0635 1.5189
582 194 2 0.5242 14.2045 31.0635 1.5189
583 195 1 -1.0484 16.4325 31.6493 1.5189
584 195 2 0.5242 15.6755 31.0635 1.5189
585 195 2 0.5242 17.1895 31.0635 1.5189
586 196 1 -1.0484 19.4175 31.6493 1.5189
587 196 2 0.5242 18.6605 31.0635 1.5189
588 196 2 0.5242 20.1745 31.0635 1.5189
589 197 1 -1.0484 22.4025 31.6493 1.5189
590 197 2 0.5242 21.6455 31.0635 1.5189
591 197 2 0.5242 23.1595 31.0635 1.5189
592 198 1 -1.0484 25.3875 31.6493 1.5189
593 198 2 0.5242 24.6305 31.0635 1.5189
594 198 2 0.5242 26.1445 31.0635 1.5189
595 199 1 -1.0484 28.3725 31.6493 1.5189
596 199 2 0.5242 27.6155 31.0635 1.5189
597 199 2 0.5242 29.1295 31.0635 1.5189
598 200 1 -1.0484 31.3575 31.6493 1.5189
599 200 2 0.5242 30.6005 31.0635 1.5189
600 200 2 0.5242 32.1145 31.0635 1.5189
601 201 1 -1.0484 34.3425 31.6493 1.5189
602 201 2 0.5242 33.5855 31.0635 1.5189
603 201 2 0.5242 35.0995 31.0635 1.5189
604 202 1 -1.0484 37.3275 31.6493 1.5189
605 202 2 0.5242 36.5705 31.0635 1.5189
606 202 2 0.5242 38.0845 31.0635 1.5189
607 203 1 -1.0484 40.3125 31.6493 1.5189
608 203 2 0.5242 39.5555 31.0635 1.5189
609 203 2 0.5242 41.0695 31.0635 1.5189
610 204 1 -1.0484 43.2975 31.6493 1.5189
611 204 2 0.5242 42.5405 31.0635 1.5189
612 204 2 0.5242 44.0545 31.0635 1.5189
613 205 1 -1.0484 46.2825 31.6493 1.5189
614 205 2 0.5242 45.5255 31.0635 1.5189
615 205 2 0.5242 47.0395 31.0635 1.5189
616 206 1 -1.0484 49.2675 31.6493 1.5189
617 206 2 0.5242 48.5105 31.0635 1.5189
618 206 2 0.5242 50.0245 31.0635 1.5189
619 207 1 -1.0484 52.2525 31.6493 1.5189
620 207 2 0.5242 51.4955 31.0635 1.5189
621 207 2 0.5242 53.0095 31.0635 1.5189
622 208 1 -1.0484 55.2375 31.6493 1.5189
623 208 2 0.5242 54.4805 31.0635 1.5189
624 208 2 0.5242 55.9945 31.0635 1.5189
625 209 1 -1.0484 58.2225 31.6493 1.5189
626 209 2 0.5242 57.4655 31.0635 1.5189
627 209 2 0.5242 58.9795 31.0635 1.5189
628 210 1 -1.0484 4.4925 34.572 1.5189
629 210 2 0.5242 3.7355 33.9861 1.5189
630 210 2 0.5242 5.2495 33.9861 1.5189
631 211 1 -1.0484 7.4775 34.572 1.5189
632 211 2 0.5242 6.7205 33.9861 1.5189
633 211 2 0.5242 8.2345 33.9861 1.5189
634 212 1 -1.0484 10.4625 34.572 1.5189
635 212 2 0.5242 9.7055 33.9861 1.5189
636 212 2 0.5242 11.2195 33.9861 1.5189
637 213 1 -1.0484 13.4475 34.572 1.5189
638 213 2 0.5242 12.6905 33.9861 1.5189
639 213 2 0.5242 14.2045 33.9861 1.5189
640 214 1 -1.0484 16.4325 34.572 1.5189
641 214 2 0.5242 15.6755 33.9861 1.5189
642 214 2 0.5242 17.1895 33.9861 1.5189
643 215 1 -1.0484 19.4175 34.572 1.5189
644 215 2 0.5242 18.6605 33.9861 1.5189
645 215 2 0.5242 20.1745 33.9861 1.5189
646 216 1 -1.0484 22.4025 34.572 1.5189
647 216 2 0.5242 21.6455 33.9861 1.5189
648 216 2 0.5242 23.1595 33.9861 1.5189
649 217 1 -1.0484 25.3875 34.572 1.5189
650 217 2 0.5242 24.6305 33.9861 1.5189
651 217 2 0.5242 26.1445 33.9861 1.5189
652 218 1 -1.0484 28.3725 34.572 1.5189
653 218 2 0.5242 27.6155 33.9861 1.5189
654 218 2 0.5242 29.1295 33.9861 1.5189
655 219 1 -1.0484 31.3575 34.572 1.5189
656 219 2 0.5242 30.6005 33.9861 1.5189
657 219 2 0.5242 32.1145 33.9861 1.5189
658 220 1 -1.0484 34.3425 34.572 1.5189
659 220 2 0.5242 33.5855 33.9861 1.5189
660 220 2 0.5242 35.0995 33.9861 1.5189
661 221 1 -1.0484 37.3275 34.572 1.5189
662 221 2 0.5242 36.5705 33.9861 1.5189
663 221 2 0.5242 38.0845 33.9861 1.5189
664 222 1 -1.0484 40.3125 34.572 1.5189
665 222 2 0.5242 39.5555 33.9861 1.5189
666 222 2 0.5242 41.0695 33.9861 1.5189
667 223 1 -1.0484 43.2975 34.572 1.5189
668 223 2 0.5242 42.5405 33.9861 1.5189
669 223 2 0.5242 44.0545 33.9861 1.5189
670 224 1 -1.0484 46.2825 34.572 1.5189
671 224 2 0.5242 45.5255 33.9861 1.5189
672 224 2 0.5242 47.0395 33.9861 1.5189
673 225 1 -1.0484 49.2675 34.572 1.5189
674 225 2 0.5242 48.5105 33.9861 1.5189
675 225 2 0.5242 50.0245 33.9861 1.5189
676 226 1 -1.0484 52.2525 34.572 1.5189
677 226 2 0.5242 51.4955 33.9861 1.5189
678 226 2 0.5242 53.0095 33.9861 1.5189
679 227 1 -1.0484 55.2375 34.572 1.5189
680 227 2 0.5242 54.4805 33.9861 1.5189
681 227 2 0.5242 55.9945 33.9861 1.5189
682 228 1 -1.0484 58.2225 34.572 1.5189
683 228 2 0.5242 57.4655 33.9861 1.5189
684 228 2 0.5242 58.9795 33.9861 1.5189
685 229 1 -1.0484 4.4925 2.4227 4.5567
686 229 2 0.5242 3.7355 1.8368 4.5567
687 229 2 0.5242 5.2495 1.8368 4.5567
688 230 1 -1.0484 7.4775 2.4227 4.5567
689 230 2 0.5242 6.7205 1.8368 4.5567
690 230 2 0.5242 8.2345 1.8368 4.5567
691 231 1 -1.0484 10.4625 2.4227 4.5567
692 231 2 0.5242 9.7055 1.8368 4.5567
693 231 2 0.5242 11.2195 1.8368 4.5567
694 232 1 -1.0484 13.4475 2.4227 4.5567
695 232 2 0.5242 12.6905 1.8368 4.5567
696 232 2 0.5242 14.2045 1.8368 4.5567
697 233 1 -1.0484 16.4325 2.4227 4.5567
698 233 2 0.5242 15.6755 1.8368 4.5567
699 233 2 0.5242 17.1895 1.8368 4.5567
700 234 1 -1.0484 19.4175 2.4227 4.5567
701 234 2 0.5242 18.6605 1.8368 4.5567
702 234 2 0.5242 20.1745 1.8368 4.5567
703 235 1 -1.0484 22.4025 2.4227 4.5567
704 235 2 0.5242 21.6455 1.8368 4.5567
705 235 2 0.5242 23.1595 1.8368 4.5567
706 236 1 -1.0484 25.3875 2.4227 4.5567
707 236 2 0.5242 24.6305 1.8368 4.5567
708 236 2 0.5242 26.1445 1.8368 4.5567
709 237 1 -1.0484 28.3725 2.4227 4.5567
710 237 2 0.5242 27.6155 1.8368 4.5567
711 237 2 0.5242 29.1295 1.8368 4.5567
712 238 1 -1.0484 31.3575 2.4227 4.5567
713 238 2 0.5242 30.6005 1.8368 4.5567
714 238 2 0.5242 32.1145 1.8368 4.5567
715 239 1 -1.0484 34.3425 2.4227 4.5567
716 239 2 0.5242 33.5855 1.8368 4.5567
717 239 2 0.5242 35.0995 1.8368 4.5567
718 240 1 -1.0484 37.3275 2.4227 4.5567
719 240 2 0.5242 36.5705 1.8368 4.5567
720 240 2 0.5242 38.0845 1.8368 4.5567
721 241 1 -1.0484 40.3125 2.4227 4.5567
722 241 2 0.5242 39.5555 1.8368 4.5567
723 241 2 0.5242 41.0695 1.8368 4.5567
724 242 1 -1.0484 43.2975 2.4227 4.5567
725 242 2 0.5242 42.5405 1.8368 4.5567
726 242 2 0.5242 44.0545 1.8368 4.5567
727 243 1 -1.0484 46.2825 2.4227 4.5567
728 243 2 0.5242 45.5255 1.8368 4.5567
729 243 2 0.5242 47.0395 1.8368 4.5567
730 244 1 -1.0484 49.2675 2.4227 4.5567
731 244 2 0.5242 48.5105 1.8368 4.5567
732 244 2 0.5242 50.0245 1.8368 4.5567
733 245 1 -1.0484 52.2525 2.4227 4.5567
734 245 2 0.5242 51.4955 1.8368 4.5567
735 245 2 0.5242 53.0095 1.8368 4.5567
736 246 1 -1.0484 55.2375 2.4227 4.5567
737 246 2 0.5242 54.4805 1.8368 4.5567
738 246 2 0.5242 55.9945 1.8368 4.5567
739 247 1 -1.0484 58.2225 2.4227 4.5567
740 247 2 0.5242 57.4655 1.8368 4.5567
741 247 2 0.5242 58.9795 1.8368 4.5567
742 248 1 -1.0484 4.4925 5.3453 4.5567
743 248 2 0.5242 3.7355 4.7595 4.5567
744 248 2 0.5242 5.2495 4.7595 4.5567
745 249 1 -1.0484 7.4775 5.3453 4.5567
746 249 2 0.5242 6.7205 4.7595 4.5567
747 249 2 0.5242 8.2345 4.7595 4.5567
748 250 1 -1.0484 10.4625 5.3453 4.5567
749 250 2 0.5242 9.7055 4.7595 4.5567
750 250 2 0.5242 11.2195 4.7595 4.5567
751 251 1 -1.0484 13.4475 5.3453 4.5567
752 251 2 0.5242 12.6905 4.7595 4.5567
753 251 2 0.5242 14.2045 4.7595 4.5567