Start File for LAMMPS   
      
3932 atoms     
1944 bonds     
972 angles     
      
6 atom types    
1 bond types    
1 angle types    
      
-20 83.778 xlo xhi   
0 26.976 ylo yhi   
0 25.789 zlo zhi   
      
Masses      
      
1 15.9994     
2 1.008     
3 22.9898     
4 35.453     
5 12.0107     
6 12.0107     
      
Bond Coeffs     
      
1 450 0.9572    
      
Angle Coeffs     
      
1 55 104.52    
      
Atoms      
      
1 1 1 -1.0484 4.4987 2.4973 1.4987
2 1 2 0.5242 3.7417 1.9115 1.4987
3 1 2 0.5242 5.2556 1.9115 1.4987
4 2 1 -1.0484 7.496 2.4973 1.4987
5 2 2 0.5242 6.739 1.9115 1.4987
6 2 2 0.5242 8.253 1.9115 1.4987
7 3 1 -1.0484 10.4933 2.4973 1.4987
8 3 2 0.5242 9.7364 1.9115 1.4987
9 3 2 0.5242 11.2503 1.9115 1.4987
10 4 1 -1.0484 13.4907 2.4973 1.4987
11 4 2 0.5242 12.7337 1.9115 1.4987
12 4 2 0.5242 14.2476 1.9115 1.4987
13 5 1 -1.0484 16.488 2.4973 1.4987
14 5 2 0.5242 15.731 1.9115 1.4987
15 5 2 0.5242 17.245 1.9115 1.4987
16 6 1 -1.0484 19.4853 2.4973 1.4987
17 6 2 0.5242 18.7284 1.9115 1.4987
18 6 2 0.5242 20.2423 1.9115 1.4987
19 7 1 -1.0484 22.4827 2.4973 1.4987
20 7 2 0.5242 21.7257 1.9115 1.4987
21 7 2 0.5242 23.2396 1.9115 1.4987
22 8 1 -1.0484 25.48 2.4973 1.4987
23 8 2 0.5242 24.723 1.9115 1.4987
24 8 2 0.5242 26.237 1.9115 1.4987
25 9 1 -1.0484 28.4773 2.4973 1.4987
26 9 2 0.5242 27.7204 1.9115 1.4987
27 9 2 0.5242 29.2343 1.9115 1.4987
28 10 1 -1.0484 31.4747 2.4973 1.4987
29 10 2 0.5242 30.7177 1.9115 1.4987
30 10 2 0.5242 32.2316 1.9115 1.4987
31 11 1 -1.0484 4.4987 5.4947 1.4987
32 11 2 0.5242 3.7417 4.9088 1.4987
33 11 2 0.5242 5.2556 4.9088 1.4987
34 12 1 -1.0484 7.496 5.4947 1.4987
35 12 2 0.5242 6.739 4.9088 1.4987
36 12 2 0.5242 8.253 4.9088 1.4987
37 13 1 -1.0484 10.4933 5.4947 1.4987
38 13 2 0.5242 9.7364 4.9088 1.4987
39 13 2 0.5242 11.2503 4.9088 1.4987
40 14 1 -1.0484 13.4907 5.4947 1.4987
41 14 2 0.5242 12.7337 4.9088 1.4987
42 14 2 0.5242 14.2476 4.9088 1.4987
43 15 1 -1.0484 16.488 5.4947 1.4987
44 15 2 0.5242 15.731 4.9088 1.4987
45 15 2 0.5242 17.245 4.9088 1.4987
46 16 1 -1.0484 19.4853 5.4947 1.4987
47 16 2 0.5242 18.7284 4.9088 1.4987
48 16 2 0.5242 20.2423 4.9088 1.4987
49 17 1 -1.0484 22.4827 5.4947 1.4987
50 17 2 0.5242 21.7257 4.9088 1.4987
51 17 2 0.5242 23.2396 4.9088 1.4987
52 18 1 -1.0484 25.48 5.4947 1.4987
53 18 2 0.5242 24.723 4.9088 1.4987
54 18 2 0.5242 26.237 4.9088 1.4987
55 19 1 -1.0484 28.4773 5.4947 1.4987
56 19 2 0.5242 27.7204 4.9088 1.4987
57 19 2 0.5242 29.2343 4.9088 1.4987
58 20 1 -1.0484 31.4747 5.4947 1.4987
59 20 2 0.5242 30.7177 4.9088 1.4987
60 20 2 0.5242 32.2316 4.9088 1.4987
61 21 1 -1.0484 4.4987 8.492 1.4987
62 21 2 0.5242 3.7417 7.9061 1.4987
63 21 2 0.5242 5.2556 7.9061 1.4987
64 22 1 -1.0484 7.496 8.492 1.4987
65 22 2 0.5242 6.739 7.9061 1.4987
66 22 2 0.5242 8.253 7.9061 1.4987
67 23 1 -1.0484 10.4933 8.492 1.4987
68 23 2 0.5242 9.7364 7.9061 1.4987
69 23 2 0.5242 11.2503 7.9061 1.4987
70 24 1 -1.0484 13.4907 8.492 1.4987
71 24 2 0.5242 12.7337 7.9061 1.4987
72 24 2 0.5242 14.2476 7.9061 1.4987
73 25 1 -1.0484 16.488 8.492 1.4987
74 25 2 0.5242 15.731 7.9061 1.4987
75 25 2 0.5242 17.245 7.9061 1.4987
76 26 1 -1.0484 19.4853 8.492 1.4987
77 26 2 0.5242 18.7284 7.9061 1.4987
78 26 2 0.5242 20.2423 7.9061 1.4987
79 27 1 -1.0484 22.4827 8.492 1.4987
80 27 2 0.5242 21.7257 7.9061 1.4987
81 27 2 0.5242 23.2396 7.9061 1.4987
82 28 1 -1.0484 25.48 8.492 1.4987
83 28 2 0.5242 24.723 7.9061 1.4987
84 28 2 0.5242 26.237 7.9061 1.4987
85 29 1 -1.0484 28.4773 8.492 1.4987
86 29 2 0.5242 27.7204 7.9061 1.4987
87 29 2 0.5242 29.2343 7.9061 1.4987
88 30 1 -1.0484 31.4747 8.492 1.4987
89 30 2 0.5242 30.7177 7.9061 1.4987
90 30 2 0.5242 32.2316 7.9061 1.4987
91 31 1 -1.0484 4.4987 11.4893 1.4987
92 31 2 0.5242 3.7417 10.9035 1.4987
93 31 2 0.5242 5.2556 10.9035 1.4987
94 32 1 -1.0484 7.496 11.4893 1.4987
95 32 2 0.5242 6.739 10.9035 1.4987
96 32 2 0.5242 8.253 10.9035 1.4987
97 33 1 -1.0484 10.4933 11.4893 1.4987
98 33 2 0.5242 9.7364 10.9035 1.4987
99 33 2 0.5242 11.2503 10.9035 1.4987
100 34 1 -1.0484 13.4907 11.4893 1.4987
101 34 2 0.5242 12.7337 10.9035 1.4987
102 34 2 0.5242 14.2476 10.9035 1.4987
103 35 1 -1.0484 16.488 11.4893 1.4987
104 35 2 0.5242 15.731 10.9035 1.4987
105 35 2 0.5242 17.245 10.9035 1.4987
106 36 1 -1.0484 19.4853 11.4893 1.4987
107 36 2 0.5242 18.7284 10.9035 1.4987
108 36 2 0.5242 20.2423 10.9035 1.4987
109 37 1 -1.0484 22.4827 11.4893 1.4987
110 37 2 0.5242 21.7257 10.9035 1.4987
111 37 2 0.5242 23.2396 10.9035 1.4987
112 38 1 -1.0484 25.48 11.4893 1.4987
113 38 2 0.5242 24.723 10.9035 1.4987
114 38 2 0.5242 26.237 10.9035 1.4987
115 39 1 -1.0484 28.4773 11.4893 1.4987
116 39 2 0.5242 27.7204 10.9035 1.4987
117 39 2 0.5242 29.2343 10.9035 1.4987
118 40 1 -1.0484 31.4747 11.4893 1.4987
119 40 2 0.5242 30.7177 10.9035 1.4987
120 40 2 0.5242 32.2316 10.9035 1.4987
121 41 1 -1.0484 4.4987 14.4867 1.4987
122 41 2 0.5242 3.7417 13.9008 1.4987
123 41 2 0.5242 5.2556 13.9008 1.4987
124 42 1 -1.0484 7.496 14.4867 1.4987
125 42 2 0.5242 6.739 13.9008 1.4987
126 42 2 0.5242 8.253 13.9008 1.4987
127 43 1 -1.0484 10.4933 14.4867 1.4987
128 43 2 0.5242 9.7364 13.9008 1.4987
129 43 2 0.5242 11.2503 13.9008 1.4987
130 44 1 -1.0484 13.4907 14.4867 1.4987
131 44 2 0.5242 12.7337 13.9008 1.4987
132 44 2 0.5242 14.2476 13.9008 1.4987
133 45 1 -1.0484 16.488 14.4867 1.4987
134 45 2 0.5242 15.731 13.9008 1.4987
135 45 2 0.5242 17.245 13.9008 1.4987
136 46 1 -1.0484 19.4853 14.4867 1.4987
137 46 2 0.5242 18.7284 13.9008 1.4987
138 46 2 0.5242 20.2423 13.9008 1.4987
139 47 1 -1.0484 22.4827 14.4867 1.4987
140 47 2 0.5242 21.7257 13.9008 1.4987
141 47 2 0.5242 23.2396 13.9008 1.4987
142 48 1 -1.0484 25.48 14.4867 1.4987
143 48 2 0.5242 24.723 13.9008 1.4987
144 48 2 0.5242 26.237 13.9008 1.4987
145 49 1 -1.0484 28.4773 14.4867 1.4987
146 49 2 0.5242 27.7204 13.9008 1.4987
147 49 2 0.5242 29.2343 13.9008 1.4987
148 50 1 -1.0484 31.4747 14.4867 1.4987
149 50 2 0.5242 30.7177 13.9008 1.4987
150 50 2 0.5242 32.2316 13.9008 1.4987
151 51 1 -1.0484 4.4987 17.484 1.4987
152 51 2 0.5242 3.7417 16.8981 1.4987
153 51 2 0.5242 5.2556 16.8981 1.4987
154 52 1 -1.0484 7.496 17.484 1.4987
155 52 2 0.5242 6.739 16.8981 1.4987
156 52 2 0.5242 8.253 16.8981 1.4987
157 53 1 -1.0484 10.4933 17.484 1.4987
158 53 2 0.5242 9.7364 16.8981 1.4987
159 53 2 0.5242 11.2503 16.8981 1.4987
160 54 1 -1.0484 13.4907 17.484 1.4987
161 54 2 0.5242 12.7337 16.8981 1.4987
162 54 2 0.5242 14.2476 16.8981 1.4987
163 55 1 -1.0484 16.488 17.484 1.4987
164 55 2 0.5242 15.731 16.8981 1.4987
165 55 2 0.5242 17.245 16.8981 1.4987
166 56 1 -1.0484 19.4853 17.484 1.4987
167 56 2 0.5242 18.7284 16.8981 1.4987
168 56 2 0.5242 20.2423 16.8981 1.4987
169 57 1 -1.0484 22.4827 17.484 1.4987
170 57 2 0.5242 21.7257 16.8981 1.4987
171 57 2 0.5242 23.2396 16.8981 1.4987
172 58 1 -1.0484 25.48 17.484 1.4987
173 58 2 0.5242 24.723 16.8981 1.4987
174 58 2 0.5242 26.237 16.8981 1.4987
175 59 1 -1.0484 28.4773 17.484 1.4987
176 59 2 0.5242 27.7204 16.8981 1.4987
177 59 2 0.5242 29.2343 16.8981 1.4987
178 60 1 -1.0484 31.4747 17.484 1.4987
179 60 2 0.5242 30.7177 16.8981 1.4987
180 60 2 0.5242 32.2316 16.8981 1.4987
181 61 1 -1.0484 4.4987 20.4813 1.4987
182 61 2 0.5242 3.7417 19.8955 1.4987
183 61 2 0.5242 5.2556 19.8955 1.4987
184 62 1 -1.0484 7.496 20.4813 1.4987
185 62 2 0.5242 6.739 19.8955 1.4987
186 62 2 0.5242 8.253 19.8955 1.4987
187 63 1 -1.0484 10.4933 20.4813 1.4987
188 63 2 0.5242 9.7364 19.8955 1.4987
189 63 2 0.5242 11.2503 19.8955 1.4987
190 64 1 -1.0484 13.4907 20.4813 1.4987
191 64 2 0.5242 12.7337 19.8955 1.4987
192 64 2 0.5242 14.2476 19.8955 1.4987
193 65 1 -1.0484 16.488 20.4813 1.4987
194 65 2 0.5242 15.731 19.8955 1.4987
195 65 2 0.5242 17.245 19.8955 1.4987
196 66 1 -1.0484 19.4853 20.4813 1.4987
197 66 2 0.5242 18.7284 19.8955 1.4987
198 66 2 0.5242 20.2423 19.8955 1.4987
199 67 1 -1.0484 22.4827 20.4813 1.4987
200 67 2 0.5242 21.7257 19.8955 1.4987
201 67 2 0.5242 23.2396 19.8955 1.4987
202 68 1 -1.0484 25.48 20.4813 1.4987
203 68 2 0.5242 24.723 19.8955 1.4987
204 68 2 0.5242 26.237 19.8955 1.4987
205 69 1 -1.0484 28.4773 20.4813 1.4987
206 69 2 0.5242 27.7204 19.8955 1.4987
207 69 2 0.5242 29.2343 19.8955 1.4987
208 70 1 -1.0484 31.4747 20.4813 1.4987
209 70 2 0.5242 30.7177 19.8955 1.4987
210 70 2 0.5242 32.2316 19.8955 1.4987
211 71 1 -1.0484 4.4987 23.4787 1.4987
212 71 2 0.5242 3.7417 22.8928 1.4987
213 71 2 0.5242 5.2556 22.8928 1.4987
214 72 1 -1.0484 7.496 23.4787 1.4987
215 72 2 0.5242 6.739 22.8928 1.4987
216 72 2 0.5242 8.253 22.8928 1.4987
217 73 1 -1.0484 10.4933 23.4787 1.4987
218 73 2 0.5242 9.7364 22.8928 1.4987
219 73 2 0.5242 11.2503 22.8928 1.4987
220 74 1 -1.0484 13.4907 23.4787 1.4987
221 74 2 0.5242 12.7337 22.8928 1.4987
222 74 2 0.5242 14.2476 22.8928 1.4987
223 75 1 -1.0484 16.488 23.4787 1.4987
224 75 2 0.5242 15.731 22.8928 1.4987
225 75 2 0.5242 17.245 22.8928 1.4987
226 76 1 -1.0484 19.4853 23.4787 1.4987
227 76 2 0.5242 18.7284 22.8928 1.4987
228 76 2 0.5242 20.2423 22.8928 1.4987
229 77 1 -1.0484 22.4827 23.4787 1.4987
230 77 2 0.5242 21.7257 22.8928 1.4987
231 77 2 0.5242 23.2396 22.8928 1.4987
232 78 1 -1.0484 25.48 23.4787 1.4987
233 78 2 0.5242 24.723 22.8928 1.4987
234 78 2 0.5242 26.237 22.8928 1.4987
235 79 1 -1.0484 28.4773 23.4787 1.4987
236 79 2 0.5242 27.7204 22.8928 1.4987
237 79 2 0.5242 29.2343 22.8928 1.4987
238 80 1 -1.0484 31.4747 23.4787 1.4987
239 80 2 0.5242 30.7177 22.8928 1.4987
240 80 2 0.5242 32.2316 22.8928 1.4987
241 81 1 -1.0484 4.4987 26.476 1.4987
242 81 2 0.5242 3.7417 25.8901 1.4987
243 81 2 0.5242 5.2556 25.8901 1.4987
244 82 1 -1.0484 7.496 26.476 1.4987
245 82 2 0.5242 6.739 25.8901 1.4987
246 82 2 0.5242 8.253 25.8901 1.4987
247 83 1 -1.0484 10.4933 26.476 1.4987
248 83 2 0.5242 9.7364 25.8901 1.4987
249 83 2 0.5242 11.2503 25.8901 1.4987
250 84 1 -1.0484 13.4907 26.476 1.4987
251 84 2 0.5242 12.7337 25.8901 1.4987
252 84 2 0.5242 14.2476 25.8901 1.4987
253 85 1 -1.0484 16.488 26.476 1.4987
254 85 2 0.5242 15.731 25.8901 1.4987
255 85 2 0.5242 17.245 25.8901 1.4987
256 86 1 -1.0484 19.4853 26.476 1.4987
257 86 2 0.5242 18.7284 25.8901 1.4987
258 86 2 0.5242 20.2423 25.8901 1.4987
259 87 1 -1.0484 22.4827 26.476 1.4987
260 87 2 0.5242 21.7257 25.8901 1.4987
261 87 2 0.5242 23.2396 25.8901 1.4987
262 88 1 -1.0484 25.48 26.476 1.4987
263 88 2 0.5242 24.723 25.8901 1.4987
264 88 2 0.5242 26.237 25.8901 1.4987
265 89 1 -1.0484 28.4773 26.476 1.4987
266 89 2 0.5242 27.7204 25.8901 1.4987
267 89 2 0.5242 29.2343 25.8901 1.4987
268 90 1 -1.0484 31.4747 26.476 1.4987
269 90 2 0.5242 30.7177 25.8901 1.4987
270 90 2 0.5242 32.2316 25.8901 1.4987
271 91 1 -1.0484 4.4987 2.4973 4.496
272 91 2 0.5242 3.7417 1.9115 4.496
273 91 2 0.5242 5.2556 1.9115 4.496
274 92 1 -1.0484 7.496 2.4973 4.496
275 92 2 0.5242 6.739 1.9115 4.496
276 92 2 0.5242 8.253 1.9115 4.496
277 93 1 -1.0484 10.4933 2.4973 4.496
278 93 2 0.5242 9.7364 1.9115 4.496
279 93 2 0.5242 11.2503 1.9115 4.496
280 94 1 -1.0484 13.4907 2.4973 4.496
281 94 2 0.5242 12.7337 1.9115 4.496
282 94 2 0.5242 14.2476 1.9115 4.496
283 95 1 -1.0484 16.488 2.4973 4.496
284 95 2 0.5242 15.731 1.9115 4.496
285 95 2 0.5242 17.245 1.9115 4.496
286 96 1 -1.0484 19.4853 2.4973 4.496
287 96 2 0.5242 18.7284 1.9115 4.496
288 96 2 0.5242 20.2423 1.9115 4.496
289 97 1 -1.0484 22.4827 2.4973 4.496
290 97 2 0.5242 21.7257 1.9115 4.496
291 97 2 0.5242 23.2396 1.9115 4.496
292 98 1 -1.0484 25.48 2.4973 4.496
293 98 2 0.5242 24.723 1.9115 4.496
294 98 2 0.5242 26.237 1.9115 4.496
295 99 1 -1.0484 28.4773 2.4973 4.496
296 99 2 0.5242 27.7204 1.9115 4.496
297 99 2 0.5242 29.2343 1.9115 4.496
298 100 1 -1.0484 31.4747 2.4973 4.496
299 100 2 0.5242 30.7177 1.9115 4.496
300 100 2 0.5242 32.2316 1.9115 4.496
301 101 1 -1.0484 4.4987 5.4947 4.496
302 101 2 0.5242 3.7417 4.9088 4.496
303 101 2 0.5242 5.2556 4.9088 4.496
304 102 1 -1.0484 7.496 5.4947 4.496
305 102 2 0.5242 6.739 4.9088 4.496
306 102 2 0.5242 8.253 4.9088 4.496
307 103 1 -1.0484 10.4933 5.4947 4.496
308 103 2 0.5242 9.7364 4.9088 4.496
309 103 2 0.5242 11.2503 4.9088 4.496
310 104 1 -1.0484 13.4907 5.4947 4.496
311 104 2 0.5242 12.7337 4.9088 4.496
312 104 2 0.5242 14.2476 4.9088 4.496
313 105 1 -1.0484 16.488 5.4947 4.496
314 105 2 0.5242 15.731 4.9088 4.496
315 105 2 0.5242 17.245 4.9088 4.496
316 106 1 -1.0484 19.4853 5.4947 4.496
317 106 2 0.5242 18.7284 4.9088 4.496
318 106 2 0.5242 20.2423 4.9088 4.496
319 107 1 -1.0484 22.4827 5.4947 4.496
320 107 2 0.5242 21.7257 4.9088 4.496
321 107 2 0.5242 23.2396 4.9088 4.496
322 108 1 -1.0484 25.48 5.4947 4.496
323 108 2 0.5242 24.723 4.9088 4.496
324 108 2 0.5242 26.237 4.9088 4.496
325 109 1 -1.0484 28.4773 5.4947 4.496
326 109 2 0.5242 27.7204 4.9088 4.496
327 109 2 0.5242 29.2343 4.9088 4.496
328 110 1 -1.0484 31.4747 5.4947 4.496
329 110 2 0.5242 30.7177 4.9088 4.496
330 110 2 0.5242 32.2316 4.9088 4.496
331 111 1 -1.0484 4.4987 8.492 4.496
332 111 2 0.5242 3.7417 7.9061 4.496
333 111 2 0.5242 5.2556 7.9061 4.496
334 112 1 -1.0484 7.496 8.492 4.496
335 112 2 0.5242 6.739 7.9061 4.496
336 112 2 0.5242 8.253 7.9061 4.496
337 113 1 -1.0484 10.4933 8.492 4.496
338 113 2 0.5242 9.7364 7.9061 4.496
339 113 2 0.5242 11.2503 7.9061 4.496
340 114 1 -1.0484 13.4907 8.492 4.496
341 114 2 0.5242 12.7337 7.9061 4.496
342 114 2 0.5242 14.2476 7.9061 4.496
343 115 1 -1.0484 16.488 8.492 4.496
344 115 2 0.5242 15.731 7.9061 4.496
345 115 2 0.5242 17.245 7.9061 4.496
346 116 1 -1.0484 19.4853 8.492 4.496
347 116 2 0.5242 18.7284 7.9061 4.496
348 116 2 0.5242 20.2423 7.9061 4.496
349 117 1 -1.0484 22.4827 8.492 4.496
350 117 2 0.5242 21.7257 7.9061 4.496
351 117 2 0.5242 23.2396 7.9061 4.496
352 118 1 -1.0484 25.48 8.492 4.496
353 118 2 0.5242 24.723 7.9061 4.496
354 118 2 0.5242 26.237 7.9061 4.496
355 119 1 -1.0484 28.4773 8.492 4.496
356 119 2 0.5242 27.7204 7.9061 4.496
357 119 2 0.5242 29.2343 7.9061 4.496
358 120 1 -1.0484 31.4747 8.492 4.496
359 120 2 0.5242 30.7177 7.9061 4.496
360 120 2 0.5242 32.2316 7.9061 4.496
361 121 1 -1.0484 4.4987 11.4893 4.496
362 121 2 0.5242 3.7417 10.9035 4.496
363 121 2 0.5242 5.2556 10.9035 4.496
364 122 1 -1.0484 7.496 11.4893 4.496
365 122 2 0.5242 6.739 10.9035 4.496
366 122 2 0.5242 8.253 10.9035 4.496
367 123 1 -1.0484 10.4933 11.4893 4.496
368 123 2 0.5242 9.7364 10.9035 4.496
369 123 2 0.5242 11.2503 10.9035 4.496
370 124 1 -1.0484 13.4907 11.4893 4.496
371 124 2 0.5242 12.7337 10.9035 4.496
372 124 2 0.5242 14.2476 10.9035 4.496
373 125 1 -1.0484 16.488 11.4893 4.496
374 125 2 0.5242 15.731 10.9035 4.496
375 125 2 0.5242 17.245 10.9035 4.496
376 126 1 -1.0484 19.4853 11.4893 4.496
377 126 2 0.5242 18.7284 10.9035 4.496
378 126 2 0.5242 20.2423 10.9035 4.496
379 127 1 -1.0484 22.4827 11.4893 4.496
380 127 2 0.5242 21.7257 10.9035 4.496
381 127 2 0.5242 23.2396 10.9035 4.496
382 128 1 -1.0484 25.48 11.4893 4.496
383 128 2 0.5242 24.723 10.9035 4.496
384 128 2 0.5242 26.237 10.9035 4.496
385 129 1 -1.0484 28.4773 11.4893 4.496
386 129 2 0.5242 27.7204 10.9035 4.496
387 129 2 0.5242 29.2343 10.9035 4.496
388 130 1 -1.0484 31.4747 11.4893 4.496
389 130 2 0.5242 30.7177 10.9035 4.496
390 130 2 0.5242 32.2316 10.9035 4.496
391 131 1 -1.0484 4.4987 14.4867 4.496
392 131 2 0.5242 3.7417 13.9008 4.496
393 131 2 0.5242 5.2556 13.9008 4.496
394 132 1 -1.0484 7.496 14.4867 4.496
395 132 2 0.5242 6.739 13.9008 4.496
396 132 2 0.5242 8.253 13.9008 4.496
397 133 1 -1.0484 10.4933 14.4867 4.496
398 133 2 0.5242 9.7364 13.9008 4.496
399 133 2 0.5242 11.2503 13.9008 4.496
400 134 1 -1.0484 13.4907 14.4867 4.496
401 134 2 0.5242 12.7337 13.9008 4.496
402 134 2 0.5242 14.2476 13.9008 4.496
403 135 1 -1.0484 16.488 14.4867 4.496
404 135 2 0.5242 15.731 13.9008 4.496
405 135 2 0.5242 17.245 13.9008 4.496
406 136 1 -1.0484 19.4853 14.4867 4.496
407 136 2 0.5242 18.7284 13.9008 4.496
408 136 2 0.5242 20.2423 13.9008 4.496
409 137 1 -1.0484 22.4827 14.4867 4.496
410 137 2 0.5242 21.7257 13.9008 4.496
411 137 2 0.5242 23.2396 13.9008 4.496
412 138 1 -1.0484 25.48 14.4867 4.496
413 138 2 0.5242 24.723 13.9008 4.496
414 138 2 0.5242 26.237 13.9008 4.496
415 139 1 -1.0484 28.4773 14.4867 4.496
416 139 2 0.5242 27.7204 13.9008 4.496
417 139 2 0.5242 29.2343 13.9008 4.496
418 140 1 -1.0484 31.4747 14.4867 4.496
419 140 2 0.5242 30.7177 13.9008 4.496
420 140 2 0.5242 32.2316 13.9008 4.496
421 141 1 -1.0484 4.4987 17.484 4.496
422 141 2 0.5242 3.7417 16.8981 4.496
423 141 2 0.5242 5.2556 16.8981 4.496
424 142 1 -1.0484 7.496 17.484 4.496
425 142 2 0.5242 6.739 16.8981 4.496
426 142 2 0.5242 8.253 16.8981 4.496
427 143 1 -1.0484 10.4933 17.484 4.496
428 143 2 0.5242 9.7364 16.8981 4.496
429 143 2 0.5242 11.2503 16.8981 4.496
430 144 1 -1.0484 13.4907 17.484 4.496
431 144 2 0.5242 12.7337 16.8981 4.496
432 144 2 0.5242 14.2476 16.8981 4.496
433 145 1 -1.0484 16.488 17.484 4.496
434 145 2 0.5242 15.731 16.8981 4.496
435 145 2 0.5242 17.245 16.8981 4.496
436 146 1 -1.0484 19.4853 17.484 4.496
437 146 2 0.5242 18.7284 16.8981 4.496
438 146 2 0.5242 20.2423 16.8981 4.496
439 147 1 -1.0484 22.4827 17.484 4.496
440 147 2 0.5242 21.7257 16.8981 4.496
441 147 2 0.5242 23.2396 16.8981 4.496
442 148 1 -1.0484 25.48 17.484 4.496
443 148 2 0.5242 24.723 16.8981 4.496
444 148 2 0.5242 26.237 16.8981 4.496
445 149 1 -1.0484 28.4773 17.484 4.496
446 149 2 0.5242 27.7204 16.8981 4.496
447 149 2 0.5242 29.2343 16.8981 4.496
448 150 1 -1.0484 31.4747 17.484 4.496
449 150 2 0.5242 30.7177 16.8981 4.496
450 150 2 0.5242 32.2316 16.8981 4.496
451 151 1 -1.0484 4.4987 20.4813 4.496
452 151 2 0.5242 3.7417 19.8955 4.496
453 151 2 0.5242 5.2556 19.8955 4.496
454 152 1 -1.0484 7.496 20.4813 4.496
455 152 2 0.5242 6.739 19.8955 4.496
456 152 2 0.5242 8.253 19.8955 4.496
457 153 1 -1.0484 10.4933 20.4813 4.496
458 153 2 0.5242 9.7364 19.8955 4.496
459 153 2 0.5242 11.2503 19.8955 4.496
460 154 1 -1.0484 13.4907 20.4813 4.496
461 154 2 0.5242 12.7337 19.8955 4.496
462 154 2 0.5242 14.2476 19.8955 4.496
463 155 1 -1.0484 16.488 20.4813 4.496
464 155 2 0.5242 15.731 19.8955 4.496
465 155 2 0.5242 17.245 19.8955 4.496
466 156 1 -1.0484 19.4853 20.4813 4.496
467 156 2 0.5242 18.7284 19.8955 4.496
468 156 2 0.5242 20.2423 19.8955 4.496
469 157 1 -1.0484 22.4827 20.4813 4.496
470 157 2 0.5242 21.7257 19.8955 4.496
471 157 2 0.5242 23.2396 19.8955 4.496
472 158 1 -1.0484 25.48 20.4813 4.496
473 158 2 0.5242 24.723 19.8955 4.496
474 158 2 0.5242 26.237 19.8955 4.496
475 159 1 -1.0484 28.4773 20.4813 4.496
476 159 2 0.5242 27.7204 19.8955 4.496
477 159 2 0.5242 29.2343 19.8955 4.496
478 160 1 -1.0484 31.4747 20.4813 4.496
479 160 2 0.5242 30.7177 19.8955 4.496
480 160 2 0.5242 32.2316 19.8955 4.496
481 161 1 -1.0484 4.4987 23.4787 4.496
482 161 2 0.5242 3.7417 22.8928 4.496
483 161 2 0.5242 5.2556 22.8928 4.496
484 162 1 -1.0484 7.496 23.4787 4.496
485 162 2 0.5242 6.739 22.8928 4.496
486 162 2 0.5242 8.253 22.8928 4.496
487 163 1 -1.0484 10.4933 23.4787 4.496
488 163 2 0.5242 9.7364 22.8928 4.496
489 163 2 0.5242 11.2503 22.8928 4.496
490 164 1 -1.0484 13.4907 23.4787 4.496
491 164 2 0.5242 12.7337 22.8928 4.496
492 164 2 0.5242 14.2476 22.8928 4.496
493 165 1 -1.0484 16.488 23.4787 4.496
494 165 2 0.5242 15.731 22.8928 4.496
495 165 2 0.5242 17.245 22.8928 4.496
496 166 1 -1.0484 19.4853 23.4787 4.496
497 166 2 0.5242 18.7284 22.8928 4.496
498 166 2 0.5242 20.2423 22.8928 4.496
499 167 1 -1.0484 22.4827 23.4787 4.496
500 167 2 0.5242 21.7257 22.8928 4.496
501 167 2 0.5242 23.2396 22.8928 4.496
502 168 1 -1.0484 25.48 23.4787 4.496
503 168 2 0.5242 24.723 22.8928 4.496
504 168 2 0.5242 26.237 22.8928 4.496
505 169 1 -1.0484 28.4773 23.4787 4.496
506 169 2 0.5242 27.7204 22.8928 4.496
507 169 2 0.5242 29.2343 22.8928 4.496
508 170 1 -1.0484 31.4747 23.4787 4.496
509 170 2 0.5242 30.7177 22.8928 4.496
510 170 2 0.5242 32.2316 22.8928 4.496
511 171 1 -1.0484 4.4987 26.476 4.496
512 171 2 0.5242 3.7417 25.8901 4.496
513 171 2 0.5242 5.2556 25.8901 4.496
514 172 1 -1.0484 7.496 26.476 4.496
515 172 2 0.5242 6.739 25.8901 4.496
516 172 2 0.5242 8.253 25.8901 4.496
517 173 1 -1.0484 10.4933 26.476 4.496
518 173 2 0.5242 9.7364 25.8901 4.496
519 173 2 0.5242 11.2503 25.8901 4.496
520 174 1 -1.0484 13.4907 26.476 4.496
521 174 2 0.5242 12.7337 25.8901 4.496
522 174 2 0.5242 14.2476 25.8901 4.496
523 175 1 -1.0484 16.488 26.476 4.496
524 175 2 0.5242 15.731 25.8901 4.496
525 175 2 0.5242 17.245 25.8901 4.496
526 176 1 -1.0484 19.4853 26.476 4.496
527 176 2 0.5242 18.7284 25.8901 4.496
528 176 2 0.5242 20.2423 25.8901 4.496
529 177 1 -1.0484 22.4827 26.476 4.496
530 177 2 0.5242 21.7257 25.8901 4.496
531 177 2 0.5242 23.2396 25.8901 4.496
532 178 1 -1.0484 25.48 26.476 4.496
533 178 2 0.5242 24.723 25.8901 4.496
534 178 2 0.5242 26.237 25.8901 4.496
535 179 1 -1.0484 28.4773 26.476 4.496
536 179 2 0.5242 27.7204 25.8901 4.496
537 179 2 0.5242 29.2343 25.8901 4.496
538 180 1 -1.0484 31.4747 26.476 4.496
539 180 2 0.5242 30.7177 25.8901 4.496
540 180 2 0.5242 32.2316 25.8901 4.496
541 181 1 -1.0484 4.4987 2.4973 7.4933
542 181 2 0.5242 3.7417 1.9115 7.4933
543 181 2 0.5242 5.2556 1.9115 7.4933
544 182 1 -1.0484 7.496 2.4973 7.4933
545 182 2 0.5242 6.739 1.9115 7.4933
546 182 2 0.5242 8.253 1.9115 7.4933
547 183 1 -1.0484 10.4933 2.4973 7.4933
548 183 2 0.5242 9.7364 1.9115 7.4933
549 183 2 0.5242 11.2503 1.9115 7.4933
550 184 1 -1.0484 13.4907 2.4973 7.4933
551 184 2 0.5242 12.7337 1.9115 7.4933
552 184 2 0.5242 14.2476 1.9115 7.4933
553 185 1 -1.0484 16.488 2.4973 7.4933
554 185 2 0.5242 15.731 1.9115 7.4933
555 185 2 0.5242 17.245 1.9115 7.4933
556 186 1 -1.0484 19.4853 2.4973 7.4933
557 186 2 0.5242 18.7284 1.9115 7.4933
558 186 2 0.5242 20.2423 1.9115 7.4933
559 187 1 -1.0484 22.4827 2.4973 7.4933
560 187 2 0.5242 21.7257 1.9115 7.4933
561 187 2 0.5242 23.2396 1.9115 7.4933
562 188 1 -1.0484 25.48 2.4973 7.4933
563 188 2 0.5242 24.723 1.9115 7.4933
564 188 2 0.5242 26.237 1.9115 7.4933
565 189 1 -1.0484 28.4773 2.4973 7.4933
566 189 2 0.5242 27.7204 1.9115 7.4933
567 189 2 0.5242 29.2343 1.9115 7.4933
568 190 1 -1.0484 31.4747 2.4973 7.4933
569 190 2 0.5242 30.7177 1.9115 7.4933
570 190 2 0.5242 32.2316 1.9115 7.4933
571 191 1 -1.0484 4.4987 5.4947 7.4933
572 191 2 0.5242 3.7417 4.9088 7.4933
573 191 2 0.5242 5.2556 4.9088 7.4933
574 192 1 -1.0484 7.496 5.4947 7.4933
575 192 2 0.5242 6.739 4.9088 7.4933
576 192 2 0.5242 8.253 4.9088 7.4933
577 193 1 -1.0484 10.4933 5.4947 7.4933
578 193 2 0.5242 9.7364 4.9088 7.4933
579 193 2 0.5242 11.2503 4.9088 7.4933
580 194 1 -1.0484 13.4907 5.4947 7.4933
581 194 2 0.5242 12.7337 4.9088 7.4933
582 194 2 0.5242 14.2476 4.9088 7.4933
583 195 1 -1.0484 16.488 5.4947 7.4933
584 195 2 0.5242 15.731 4.9088 7.4933
585 195 2 0.5242 17.245 4.9088 7.4933
586 196 1 -1.0484 19.4853 5.4947 7.4933
587 196 2 0.5242 18.7284 4.9088 7.4933
588 196 2 0.5242 20.2423 4.9088 7.4933
589 197 1 -1.0484 22.4827 5.4947 7.4933
590 197 2 0.5242 21.7257 4.9088 7.4933
591 197 2 0.5242 23.2396 4.9088 7.4933
592 198 1 -1.0484 25.48 5.4947 7.4933
593 198 2 0.5242 24.723 4.9088 7.4933
594 198 2 0.5242 26.237 4.9088 7.4933
595 199 1 -1.0484 28.4773 5.4947 7.4933
596 199 2 0.5242 27.7204 4.9088 7.4933
597 199 2 0.5242 29.2343 4.9088 7.4933
598 200 1 -1.0484 31.4747 5.4947 7.4933
599 200 2 0.5242 30.7177 4.9088 7.4933
600 200 2 0.5242 32.2316 4.9088 7.4933
601 201 1 -1.0484 4.4987 8.492 7.4933
602 201 2 0.5242 3.7417 7.9061 7.4933
603 201 2 0.5242 5.2556 7.9061 7.4933
604 202 1 -1.0484 7.496 8.492 7.4933
605 202 2 0.5242 6.739 7.9061 7.4933
606 202 2 0.5242 8.253 7.9061 7.4933
607 203 1 -1.0484 10.4933 8.492 7.4933
608 203 2 0.5242 9.7364 7.9061 7.4933
609 203 2 0.5242 11.2503 7.9061 7.4933
610 204 1 -1.0484 13.4907 8.492 7.4933
611 204 2 0.5242 12.7337 7.9061 7.4933
612 204 2 0.5242 14.2476 7.9061 7.4933
613 205 1 -1.0484 16.488 8.492 7.4933
614 205 2 0.5242 15.731 7.9061 7.4933
615 205 2 0.5242 17.245 7.9061 7.4933
616 206 1 -1.0484 19.4853 8.492 7.4933
617 206 2 0.5242 18.7284 7.9061 7.4933
618 206 2 0.5242 20.2423 7.9061 7.4933
619 207 1 -1.0484 22.4827 8.492 7.4933
620 207 2 0.5242 21.7257 7.9061 7.4933
621 207 2 0.5242 23.2396 7.9061 7.4933
622 208 1 -1.0484 25.48 8.492 7.4933
623 208 2 0.5242 24.723 7.9061 7.4933
624 208 2 0.5242 26.237 7.9061 7.4933
625 209 1 -1.0484 28.4773 8.492 7.4933
626 209 2 0.5242 27.7204 7.9061 7.4933
627 209 2 0.5242 29.2343 7.9061 7.4933
628 210 1 -1.0484 31.4747 8.492 7.4933
629 210 2 0.5242 30.7177 7.9061 7.4933
630 210 2 0.5242 32.2316 7.9061 7.4933
631 211 1 -1.0484 4.4987 11.4893 7.4933
632 211 2 0.5242 3.7417 10.9035 7.4933
633 211 2 0.5242 5.2556 10.9035 7.4933
634 212 1 -1.0484 7.496 11.4893 7.4933
635 212 2 0.5242 6.739 10.9035 7.4933
636 212 2 0.5242 8.253 10.9035 7.4933
637 213 1 -1.0484 10.4933 11.4893 7.4933
638 213 2 0.5242 9.7364 10.9035 7.4933
639 213 2 0.5242 11.2503 10.9035 7.4933
640 214 1 -1.0484 13.4907 11.4893 7.4933
641 214 2 0.5242 12.7337 10.9035 7.4933
642 214 2 0.5242 14.2476 10.9035 7.4933
643 215 1 -1.0484 16.488 11.4893 7.4933
644 215 2 0.5242 15.731 10.9035 7.4933
645 215 2 0.5242 17.245 10.9035 7.4933
646 216 1 -1.0484 19.4853 11.4893 7.4933
647 216 2 0.5242 18.7284 10.9035 7.4933
648 216 2 0.5242 20.2423 10.9035 7.4933
649 217 1 -1.0484 22.4827 11.4893 7.4933
650 217 2 0.5242 21.7257 10.9035 7.4933
651 217 2 0.5242 23.2396 10.9035 7.4933
652 218 1 -1.0484 25.48 11.4893 7.4933
653 218 2 0.5242 24.723 10.9035 7.4933
654 218 2 0.5242 26.237 10.9035 7.4933
655 219 1 -1.0484 28.4773 11.4893 7.4933
656 219 2 0.5242 27.7204 10.9035 7.4933
657 219 2 0.5242 29.2343 10.9035 7.4933
658 220 1 -1.0484 31.4747 11.4893 7.4933
659 220 2 0.5242 30.7177 10.9035 7.4933
660 220 2 0.5242 32.2316 10.9035 7.4933
661 221 1 -1.0484 4.4987 14.4867 7.4933
662 221 2 0.5242 3.7417 13.9008 7.4933
663 221 2 0.5242 5.2556 13.9008 7.4933
664 222 1 -1.0484 7.496 14.4867 7.4933
665 222 2 0.5242 6.739 13.9008 7.4933
666 222 2 0.5242 8.253 13.9008 7.4933
667 223 1 -1.0484 10.4933 14.4867 7.4933
668 223 2 0.5242 9.7364 13.9008 7.4933
669 223 2 0.5242 11.2503 13.9008 7.4933
670 224 1 -1.0484 13.4907 14.4867 7.4933
671 224 2 0.5242 12.7337 13.9008 7.4933
672 224 2 0.5242 14.2476 13.9008 7.4933
673 225 1 -1.0484 16.488 14.4867 7.4933
674 225 2 0.5242 15.731 13.9008 7.4933
675 225 2 0.5242 17.245 13.9008 7.4933
676 226 1 -1.0484 19.4853 14.4867 7.4933
677 226 2 0.5242 18.7284 13.9008 7.4933
678 226 2 0.5242 20.2423 13.9008 7.4933
679 227 1 -1.0484 22.4827 14.4867 7.4933
680 227 2 0.5242 21.7257 13.9008 7.4933
681 227 2 0.5242 23.2396 13.9008 7.4933
682 228 1 -1.0484 25.48 14.4867 7.4933
683 228 2 0.5242 24.723 13.9008 7.4933
684 228 2 0.5242 26.237 13.9008 7.4933
685 229 1 -1.0484 28.4773 14.4867 7.4933
686 229 2 0.5242 27.7204 13.9008 7.4933
687 229 2 0.5242 29.2343 13.9008 7.4933
688 230 1 -1.0484 31.4747 14.4867 7.4933
689 230 2 0.5242 30.7177 13.9008 7.4933
690 230 2 0.5242 32.2316 13.9008 7.4933
691 231 1 -1.0484 4.4987 17.484 7.4933
692 231 2 0.5242 3.7417 16.8981 7.4933
693 231 2 0.5242 5.2556 16.8981 7.4933
694 232 1 -1.0484 7.496 17.484 7.4933
695 232 2 0.5242 6.739 16.8981 7.4933
696 232 2 0.5242 8.253 16.8981 7.4933
697 233 1 -1.0484 10.4933 17.484 7.4933
698 233 2 0.5242 9.7364 16.8981 7.4933
699 233 2 0.5242 11.2503 16.8981 7.4933
700 234 1 -1.0484 13.4907 17.484 7.4933
701 234 2 0.5242 12.7337 16.8981 7.4933
702 234 2 0.5242 14.2476 16.8981 7.4933
703 235 1 -1.0484 16.488 17.484 7.4933
704 235 2 0.5242 15.731 16.8981 7.4933
705 235 2 0.5242 17.245 16.8981 7.4933
706 236 1 -1.0484 19.4853 17.484 7.4933
707 236 2 0.5242 18.7284 16.8981 7.4933
708 236 2 0.5242 20.2423 16.8981 7.4933
709 237 1 -1.0484 22.4827 17.484 7.4933
710 237 2 0.5242 21.7257 16.8981 7.4933
711 237 2 0.5242 23.2396 16.8981 7.4933
712 238 1 -1.0484 25.48 17.484 7.4933
713 238 2 0.5242 24.723 16.8981 7.4933
714 238 2 0.5242 26.237 16.8981 7.4933
715 239 1 -1.0484 28.4773 17.484 7.4933
716 239 2 0.5242 27.7204 16.8981 7.4933
717 239 2 0.5242 29.2343 16.8981 7.4933
718 240 1 -1.0484 31.4747 17.484 7.4933
719 240 2 0.5242 30.7177 16.8981 7.4933
720 240 2 0.5242 32.2316 16.8981 7.4933
721 241 1 -1.0484 4.4987 20.4813 7.4933
722 241 2 0.5242 3.7417 19.8955 7.4933
723 241 2 0.5242 5.2556 19.8955 7.4933
724 242 1 -1.0484 7.496 20.4813 7.4933
725 242 2 0.5242 6.739 19.8955 7.4933
726 242 2 0.5242 8.253 19.8955 7.4933
727 243 1 -1.0484 10.4933 20.4813 7.4933
728 243 2 0.5242 9.7364 19.8955 7.4933
729 243 2 0.5242 11.2503 19.8955 7.4933
730 244 1 -1.0484 13.4907 20.4813 7.4933
731 244 2 0.5242 12.7337 19.8955 7.4933
732 244 2 0.5242 14.2476 19.8955 7.4933
733 245 1 -1.0484 16.488 20.4813 7.4933
734 245 2 0.5242 15.731 19.8955 7.4933
735 245 2 0.5242 17.245 19.8955 7.4933
736 246 1 -1.0484 19.4853 20.4813 7.4933
737 246 2 0.5242 18.7284 19.8955 7.4933
738 246 2 0.5242 20.2423 19.8955 7.4933
739 247 1 -1.0484 22.4827 20.4813 7.4933
740 247 2 0.5242 21.7257 19.8955 7.4933
741 247 2 0.5242 23.2396 19.8955 7.4933
742 248 1 -1.0484 25.48 20.4813 7.4933
743 248 2 0.5242 24.723 19.8955 7.4933
744 248 2 0.5242 26.237 19.8955 7.4933
745 249 1 -1.0484 28.4773 20.4813 7.4933
746 249 2 0.5242 27.7204 19.8955 7.4933
747 249 2 0.5242 29.2343 19.8955 7.4933
748 250 1 -1.0484 31.4747 20.4813 7.4933
749 250 2 0.5242 30.7177 19.8955 7.4933
750 250 2 0.5242 32.2316 19.8955 7.4933
751 251 1 -1.0484 4.4987 23.4787 7.4933
752 251 2 0.5242 3.7417 22.8928 7.4933
753 251 2 0.5242 5.2556 22.8928 7.4933
754 252 1 -1.0484 7.496 23.4787 7.4933
755 252 2 0.5242 6.739 22.8928 7.4933
756 252 2 0.5242 8.253 22.8928 7.4933
757 253 1 -1.0484 10.4933 23.4787 7.4933
758 253 2 0.5242 9.7364 22.8928 7.4933
759 253 2 0.5242 11.2503 22.8928 7.4933
760 254 1 -1.0484 13.4907 23.4787 7.4933
761 254 2 0.5242 12.7337 22.8928 7.4933
762 254 2 0.5242 14.2476 22.8928 7.4933
763 255 1 -1.0484 16.488 23.4787 7.4933
764 255 2 0.5242 15.731 22.8928 7.4933
765 255 2 0.5242 17.245 22.8928 7.4933
766 256 1 -1.0484 19.4853 23.4787 7.4933
767 256 2 0.5242 18.7284 22.8928 7.4933
768 256 2 0.5242 20.2423 22.8928 7.4933
769 257 1 -1.0484 22.4827 23.4787 7.4933