Start File for LAMMPS

35870 atoms
22100 bonds
11050 angles

7 atom types
1 bond types
1 angle types

-20.000 284.491 xlo xhi
0.000 39.150 ylo yhi
0.000 53.900 zlo zhi

Masses

1  15.9994
2  1.0080
3  22.9898
4  35.4530
5  12.0107
6  32.0650
7  95.9400

Bond Coeffs

1  450  0.9572

Angle Coeffs

1  55  104.5200

Atoms

1  1  1  -1.0484  4.4925  2.5115  1.5853
2  1  2  0.5242  3.7355  1.9257  1.5853
3  1  2  0.5242  5.2495  1.9257  1.5853
4  2  1  -1.0484  7.4775  2.5115  1.5853
5  2  2  0.5242  6.7205  1.9257  1.5853
6  2  2  0.5242  8.2345  1.9257  1.5853
7  3  1  -1.0484  10.4625  2.5115  1.5853
8  3  2  0.5242  9.7055  1.9257  1.5853
9  3  2  0.5242  11.2195  1.9257  1.5853
10  4  1  -1.0484  13.4475  2.5115  1.5853
11  4  2  0.5242  12.6905  1.9257  1.5853
12  4  2  0.5242  14.2045  1.9257  1.5853
13  5  1  -1.0484  16.4325  2.5115  1.5853
14  5  2  0.5242  15.6755  1.9257  1.5853
15  5  2  0.5242  17.1895  1.9257  1.5853
16  6  1  -1.0484  19.4175  2.5115  1.5853
17  6  2  0.5242  18.6605  1.9257  1.5853
18  6  2  0.5242  20.1745  1.9257  1.5853
19  7  1  -1.0484  22.4025  2.5115  1.5853
20  7  2  0.5242  21.6455  1.9257  1.5853
21  7  2  0.5242  23.1595  1.9257  1.5853
22  8  1  -1.0484  25.3875  2.5115  1.5853
23  8  2  0.5242  24.6305  1.9257  1.5853
24  8  2  0.5242  26.1445  1.9257  1.5853
25  9  1  -1.0484  28.3725  2.5115  1.5853
26  9  2  0.5242  27.6155  1.9257  1.5853
27  9  2  0.5242  29.1295  1.9257  1.5853
28  10  1  -1.0484  31.3575  2.5115  1.5853
29  10  2  0.5242  30.6005  1.9257  1.5853
30  10  2  0.5242  32.1145  1.9257  1.5853
31  11  1  -1.0484  34.3425  2.5115  1.5853
32  11  2  0.5242  33.5855  1.9257  1.5853
33  11  2  0.5242  35.0995  1.9257  1.5853
34  12  1  -1.0484  37.3275  2.5115  1.5853
35  12  2  0.5242  36.5705  1.9257  1.5853
36  12  2  0.5242  38.0845  1.9257  1.5853
37  13  1  -1.0484  40.3125  2.5115  1.5853
38  13  2  0.5242  39.5555  1.9257  1.5853
39  13  2  0.5242  41.0695  1.9257  1.5853
40  14  1  -1.0484  43.2975  2.5115  1.5853
41  14  2  0.5242  42.5405  1.9257  1.5853
42  14  2  0.5242  44.0545  1.9257  1.5853
43  15  1  -1.0484  46.2825  2.5115  1.5853
44  15  2  0.5242  45.5255  1.9257  1.5853
45  15  2  0.5242  47.0395  1.9257  1.5853
46  16  1  -1.0484  49.2675  2.5115  1.5853
47  16  2  0.5242  48.5105  1.9257  1.5853
48  16  2  0.5242  50.0245  1.9257  1.5853
49  17  1  -1.0484  52.2525  2.5115  1.5853
50  17  2  0.5242  51.4955  1.9257  1.5853
51  17  2  0.5242  53.0095  1.9257  1.5853
52  18  1  -1.0484  55.2375  2.5115  1.5853
53  18  2  0.5242  54.4805  1.9257  1.5853
54  18  2  0.5242  55.9945  1.9257  1.5853
55  19  1  -1.0484  58.2225  2.5115  1.5853
56  19  2  0.5242  57.4655  1.9257  1.5853
57  19  2  0.5242  58.9795  1.9257  1.5853
58  20  1  -1.0484  61.2075  2.5115  1.5853
59  20  2  0.5242  60.4505  1.9257  1.5853
60  20  2  0.5242  61.9645  1.9257  1.5853
61  21  1  -1.0484  64.1925  2.5115  1.5853
62  21  2  0.5242  63.4355  1.9257  1.5853
63  21  2  0.5242  64.9495  1.9257  1.5853
64  22  1  -1.0484  67.1775  2.5115  1.5853
65  22  2  0.5242  66.4205  1.9257  1.5853
66  22  2  0.5242  67.9345  1.9257  1.5853
67  23  1  -1.0484  70.1625  2.5115  1.5853
68  23  2  0.5242  69.4055  1.9257  1.5853
69  23  2  0.5242  70.9195  1.9257  1.5853
70  24  1  -1.0484  73.1475  2.5115  1.5853
71  24  2  0.5242  72.3905  1.9257  1.5853
72  24  2  0.5242  73.9045  1.9257  1.5853
73  25  1  -1.0484  76.1325  2.5115  1.5853
74  25  2  0.5242  75.3755  1.9257  1.5853
75  25  2  0.5242  76.8895  1.9257  1.5853
76  26  1  -1.0484  79.1175  2.5115  1.5853
77  26  2  0.5242  78.3605  1.9257  1.5853
78  26  2  0.5242  79.8745  1.9257  1.5853
79  27  1  -1.0484  82.1025  2.5115  1.5853
80  27  2  0.5242  81.3455  1.9257  1.5853
81  27  2  0.5242  82.8595  1.9257  1.5853
82  28  1  -1.0484  85.0875  2.5115  1.5853
83  28  2  0.5242  84.3305  1.9257  1.5853
84  28  2  0.5242  85.8445  1.9257  1.5853
85  29  1  -1.0484  88.0725  2.5115  1.5853
86  29  2  0.5242  87.3155  1.9257  1.5853
87  29  2  0.5242  88.8295  1.9257  1.5853
88  30  1  -1.0484  91.0575  2.5115  1.5853
89  30  2  0.5242  90.3005  1.9257  1.5853
90  30  2  0.5242  91.8145  1.9257  1.5853
91  31  1  -1.0484  94.0425  2.5115  1.5853
92  31  2  0.5242  93.2855  1.9257  1.5853
93  31  2  0.5242  94.7995  1.9257  1.5853
94  32  1  -1.0484  97.0275  2.5115  1.5853
95  32  2  0.5242  96.2705  1.9257  1.5853
96  32  2  0.5242  97.7845  1.9257  1.5853
97  33  1  -1.0484  100.0125  2.5115  1.5853
98  33  2  0.5242  99.2555  1.9257  1.5853
99  33  2  0.5242  100.7695  1.9257  1.5853
100  34  1  -1.0484  102.9975  2.5115  1.5853
101  34  2  0.5242  102.2405  1.9257  1.5853
102  34  2  0.5242  103.7545  1.9257  1.5853
103  35  1  -1.0484  105.9825  2.5115  1.5853
104  35  2  0.5242  105.2255  1.9257  1.5853
105  35  2  0.5242  106.7395  1.9257  1.5853
106  36  1  -1.0484  108.9675  2.5115  1.5853
107  36  2  0.5242  108.2105  1.9257  1.5853
108  36  2  0.5242  109.7245  1.9257  1.5853
109  37  1  -1.0484  111.9525  2.5115  1.5853
110  37  2  0.5242  111.1955  1.9257  1.5853
111  37  2  0.5242  112.7095  1.9257  1.5853
112  38  1  -1.0484  114.9375  2.5115  1.5853
113  38  2  0.5242  114.1805  1.9257  1.5853
114  38  2  0.5242  115.6945  1.9257  1.5853
115  39  1  -1.0484  4.4925  5.5231  1.5853
116  39  2  0.5242  3.7355  4.9372  1.5853
117  39  2  0.5242  5.2495  4.9372  1.5853
118  40  1  -1.0484  7.4775  5.5231  1.5853
119  40  2  0.5242  6.7205  4.9372  1.5853
120  40  2  0.5242  8.2345  4.9372  1.5853
121  41  1  -1.0484  10.4625  5.5231  1.5853
122  41  2  0.5242  9.7055  4.9372  1.5853
123  41  2  0.5242  11.2195  4.9372  1.5853
124  42  1  -1.0484  13.4475  5.5231  1.5853
125  42  2  0.5242  12.6905  4.9372  1.5853
126  42  2  0.5242  14.2045  4.9372  1.5853
127  43  1  -1.0484  16.4325  5.5231  1.5853
128  43  2  0.5242  15.6755  4.9372  1.5853
129  43  2  0.5242  17.1895  4.9372  1.5853
130  44  1  -1.0484  19.4175  5.5231  1.5853
131  44  2  0.5242  18.6605  4.9372  1.5853
132  44  2  0.5242  20.1745  4.9372  1.5853
133  45  1  -1.0484  22.4025  5.5231  1.5853
134  45  2  0.5242  21.6455  4.9372  1.5853
135  45  2  0.5242  23.1595  4.9372  1.5853
136  46  1  -1.0484  25.3875  5.5231  1.5853
137  46  2  0.5242  24.6305  4.9372  1.5853
138  46  2  0.5242  26.1445  4.9372  1.5853
139  47  1  -1.0484  28.3725  5.5231  1.5853
140  47  2  0.5242  27.6155  4.9372  1.5853
141  47  2  0.5242  29.1295  4.9372  1.5853
142  48  1  -1.0484  31.3575  5.5231  1.5853
143  48  2  0.5242  30.6005  4.9372  1.5853
144  48  2  0.5242  32.1145  4.9372  1.5853
145  49  1  -1.0484  34.3425  5.5231  1.5853
146  49  2  0.5242  33.5855  4.9372  1.5853
147  49  2  0.5242  35.0995  4.9372  1.5853
148  50  1  -1.0484  37.3275  5.5231  1.5853
149  50  2  0.5242  36.5705  4.9372  1.5853
150  50  2  0.5242  38.0845  4.9372  1.5853
151  51  1  -1.0484  40.3125  5.5231  1.5853
152  51  2  0.5242  39.5555  4.9372  1.5853
153  51  2  0.5242  41.0695  4.9372  1.5853
154  52  1  -1.0484  43.2975  5.5231  1.5853
155  52  2  0.5242  42.5405  4.9372  1.5853
156  52  2  0.5242  44.0545  4.9372  1.5853
157  53  1  -1.0484  46.2825  5.5231  1.5853
158  53  2  0.5242  45.5255  4.9372  1.5853
159  53  2  0.5242  47.0395  4.9372  1.5853
160  54  1  -1.0484  49.2675  5.5231  1.5853
161  54  2  0.5242  48.5105  4.9372  1.5853
162  54  2  0.5242  50.0245  4.9372  1.5853
163  55  1  -1.0484  52.2525  5.5231  1.5853
164  55  2  0.5242  51.4955  4.9372  1.5853
165  55  2  0.5242  53.0095  4.9372  1.5853
166  56  1  -1.0484  55.2375  5.5231  1.5853
167  56  2  0.5242  54.4805  4.9372  1.5853
168  56  2  0.5242  55.9945  4.9372  1.5853
169  57  1  -1.0484  58.2225  5.5231  1.5853
170  57  2  0.5242  57.4655  4.9372  1.5853
171  57  2  0.5242  58.9795  4.9372  1.5853
172  58  1  -1.0484  61.2075  5.5231  1.5853
173  58  2  0.5242  60.4505  4.9372  1.5853
174  58  2  0.5242  61.9645  4.9372  1.5853
175  59  1  -1.0484  64.1925  5.5231  1.5853
176  59  2  0.5242  63.4355  4.9372  1.5853
177  59  2  0.5242  64.9495  4.9372  1.5853
178  60  1  -1.0484  67.1775  5.5231  1.5853
179  60  2  0.5242  66.4205  4.9372  1.5853
180  60  2  0.5242  67.9345  4.9372  1.5853
181  61  1  -1.0484  70.1625  5.5231  1.5853
182  61  2  0.5242  69.4055  4.9372  1.5853
183  61  2  0.5242  70.9195  4.9372  1.5853
184  62  1  -1.0484  73.1475  5.5231  1.5853
185  62  2  0.5242  72.3905  4.9372  1.5853
186  62  2  0.5242  73.9045  4.9372  1.5853
187  63  1  -1.0484  76.1325  5.5231  1.5853
188  63  2  0.5242  75.3755  4.9372  1.5853
189  63  2  0.5242  76.8895  4.9372  1.5853
190  64  1  -1.0484  79.1175  5.5231  1.5853
191  64  2  0.5242  78.3605  4.9372  1.5853
192  64  2  0.5242  79.8745  4.9372  1.5853
193  65  1  -1.0484  82.1025  5.5231  1.5853
194  65  2  0.5242  81.3455  4.9372  1.5853
195  65  2  0.5242  82.8595  4.9372  1.5853
196  66  1  -1.0484  85.0875  5.5231  1.5853
197  66  2  0.5242  84.3305  4.9372  1.5853
198  66  2  0.5242  85.8445  4.9372  1.5853
199  67  1  -1.0484  88.0725  5.5231  1.5853
200  67  2  0.5242  87.3155  4.9372  1.5853
201  67  2  0.5242  88.8295  4.9372  1.5853
202  68  1  -1.0484  91.0575  5.5231  1.5853
203  68  2  0.5242  90.3005  4.9372  1.5853
204  68  2  0.5242  91.8145  4.9372  1.5853
205  69  1  -1.0484  94.0425  5.5231  1.5853
206  69  2  0.5242  93.2855  4.9372  1.5853
207  69  2  0.5242  94.7995  4.9372  1.5853
208  70  1  -1.0484  97.0275  5.5231  1.5853
209  70  2  0.5242  96.2705  4.9372  1.5853
210  70  2  0.5242  97.7845  4.9372  1.5853
211  71  1  -1.0484  100.0125  5.5231  1.5853
212  71  2  0.5242  99.2555  4.9372  1.5853
213  71  2  0.5242  100.7695  4.9372  1.5853
214  72  1  -1.0484  102.9975  5.5231  1.5853
215  72  2  0.5242  102.2405  4.9372  1.5853
216  72  2  0.5242  103.7545  4.9372  1.5853
217  73  1  -1.0484  105.9825  5.5231  1.5853
218  73  2  0.5242  105.2255  4.9372  1.5853
219  73  2  0.5242  106.7395  4.9372  1.5853
220  74  1  -1.0484  108.9675  5.5231  1.5853
221  74  2  0.5242  108.2105  4.9372  1.5853
222  74  2  0.5242  109.7245  4.9372  1.5853
223  75  1  -1.0484  111.9525  5.5231  1.5853
224  75  2  0.5242  111.1955  4.9372  1.5853
225  75  2  0.5242  112.7095  4.9372  1.5853
226  76  1  -1.0484  114.9375  5.5231  1.5853
227  76  2  0.5242  114.1805  4.9372  1.5853
228  76  2  0.5242  115.6945  4.9372  1.5853
229  77  1  -1.0484  4.4925  8.5346  1.5853
230  77  2  0.5242  3.7355  7.9487  1.5853
231  77  2  0.5242  5.2495  7.9487  1.5853
232  78  1  -1.0484  7.4775  8.5346  1.5853
233  78  2  0.5242  6.7205  7.9487  1.5853
234  78  2  0.5242  8.2345  7.9487  1.5853
235  79  1  -1.0484  10.4625  8.5346  1.5853
236  79  2  0.5242  9.7055  7.9487  1.5853
237  79  2  0.5242  11.2195  7.9487  1.5853
238  80  1  -1.0484  13.4475  8.5346  1.5853
239  80  2  0.5242  12.6905  7.9487  1.5853
240  80  2  0.5242  14.2045  7.9487  1.5853
241  81  1  -1.0484  16.4325  8.5346  1.5853
242  81  2  0.5242  15.6755  7.9487  1.5853
243  81  2  0.5242  17.1895  7.9487  1.5853
244  82  1  -1.0484  19.4175  8.5346  1.5853
245  82  2  0.5242  18.6605  7.9487  1.5853
246  82  2  0.5242  20.1745  7.9487  1.5853
247  83  1  -1.0484  22.4025  8.5346  1.5853
248  83  2  0.5242  21.6455  7.9487  1.5853
249  83  2  0.5242  23.1595  7.9487  1.5853
250  84  1  -1.0484  25.3875  8.5346  1.5853
251  84  2  0.5242  24.6305  7.9487  1.5853
252  84  2  0.5242  26.1445  7.9487  1.5853
253  85  1  -1.0484  28.3725  8.5346  1.5853
254  85  2  0.5242  27.6155  7.9487  1.5853
255  85  2  0.5242  29.1295  7.9487  1.5853
256  86  1  -1.0484  31.3575  8.5346  1.5853
257  86  2  0.5242  30.6005  7.9487  1.5853
258  86  2  0.5242  32.1145  7.9487  1.5853
259  87  1  -1.0484  34.3425  8.5346  1.5853
260  87  2  0.5242  33.5855  7.9487  1.5853
261  87  2  0.5242  35.0995  7.9487  1.5853
262  88  1  -1.0484  37.3275  8.5346  1.5853
263  88  2  0.5242  36.5705  7.9487  1.5853
264  88  2  0.5242  38.0845  7.9487  1.5853
265  89  1  -1.0484  40.3125  8.5346  1.5853
266  89  2  0.5242  39.5555  7.9487  1.5853
267  89  2  0.5242  41.0695  7.9487  1.5853
268  90  1  -1.0484  43.2975  8.5346  1.5853
269  90  2  0.5242  42.5405  7.9487  1.5853
270  90  2  0.5242  44.0545  7.9487  1.5853
271  91  1  -1.0484  46.2825  8.5346  1.5853
272  91  2  0.5242  45.5255  7.9487  1.5853
273  91  2  0.5242  47.0395  7.9487  1.5853
274  92  1  -1.0484  49.2675  8.5346  1.5853
275  92  2  0.5242  48.5105  7.9487  1.5853
276  92  2  0.5242  50.0245  7.9487  1.5853
277  93  1  -1.0484  52.2525  8.5346  1.5853
278  93  2  0.5242  51.4955  7.9487  1.5853
279  93  2  0.5242  53.0095  7.9487  1.5853
280  94  1  -1.0484  55.2375  8.5346  1.5853
281  94  2  0.5242  54.4805  7.9487  1.5853
282  94  2  0.5242  55.9945  7.9487  1.5853
283  95  1  -1.0484  58.2225  8.5346  1.5853
284  95  2  0.5242  57.4655  7.9487  1.5853
285  95  2  0.5242  58.9795  7.9487  1.5853
286  96  1  -1.0484  61.2075  8.5346  1.5853
287  96  2  0.5242  60.4505  7.9487  1.5853
288  96  2  0.5242  61.9645  7.9487  1.5853
289  97  1  -1.0484  64.1925  8.5346  1.5853
290  97  2  0.5242  63.4355  7.9487  1.5853
291  97  2  0.5242  64.9495  7.9487  1.5853
292  98  1  -1.0484  67.1775  8.5346  1.5853
293  98  2  0.5242  66.4205  7.9487  1.5853
294  98  2  0.5242  67.9345  7.9487  1.5853
295  99  1  -1.0484  70.1625  8.5346  1.5853
296  99  2  0.5242  69.4055  7.9487  1.5853
297  99  2  0.5242  70.9195  7.9487  1.5853
298  100  1  -1.0484  73.1475  8.5346  1.5853
299  100  2  0.5242  72.3905  7.9487  1.5853
300  100  2  0.5242  73.9045  7.9487  1.5853
301  101  1  -1.0484  76.1325  8.5346  1.5853
302  101  2  0.5242  75.3755  7.9487  1.5853
303  101  2  0.5242  76.8895  7.9487  1.5853
304  102  1  -1.0484  79.1175  8.5346  1.5853
305  102  2  0.5242  78.3605  7.9487  1.5853
306  102  2  0.5242  79.8745  7.9487  1.5853
307  103  1  -1.0484  82.1025  8.5346  1.5853
308  103  2  0.5242  81.3455  7.9487  1.5853
309  103  2  0.5242  82.8595  7.9487  1.5853
310  104  1  -1.0484  85.0875  8.5346  1.5853
311  104  2  0.5242  84.3305  7.9487  1.5853
312  104  2  0.5242  85.8445  7.9487  1.5853
313  105  1  -1.0484  88.0725  8.5346  1.5853
314  105  2  0.5242  87.3155  7.9487  1.5853
315  105  2  0.5242  88.8295  7.9487  1.5853
316  106  1  -1.0484  91.0575  8.5346  1.5853
317  106  2  0.5242  90.3005  7.9487  1.5853
318  106  2  0.5242  91.8145  7.9487  1.5853
319  107  1  -1.0484  94.0425  8.5346  1.5853
320  107  2  0.5242  93.2855  7.9487  1.5853
321  107  2  0.5242  94.7995  7.9487  1.5853
322  108  1  -1.0484  97.0275  8.5346  1.5853
323  108  2  0.5242  96.2705  7.9487  1.5853
324  108  2  0.5242  97.7845  7.9487  1.5853
325  109  1  -1.0484  100.0125  8.5346  1.5853
326  109  2  0.5242  99.2555  7.9487  1.5853
327  109  2  0.5242  100.7695  7.9487  1.5853
328  110  1  -1.0484  102.9975  8.5346  1.5853
329  110  2  0.5242  102.2405  7.9487  1.5853
330  110  2  0.5242  103.7545  7.9487  1.5853
331  111  1  -1.0484  105.9825  8.5346  1.5853
332  111  2  0.5242  105.2255  7.9487  1.5853
333  111  2  0.5242  106.7395  7.9487  1.5853
334  112  1  -1.0484  108.9675  8.5346  1.5853
335  112  2  0.5242  108.2105  7.9487  1.5853
336  112  2  0.5242  109.7245  7.9487  1.5853
337  113  1  -1.0484  111.9525  8.5346  1.5853
338  113  2  0.5242  111.1955  7.9487  1.5853
339  113  2  0.5242  112.7095  7.9487  1.5853
340  114  1  -1.0484  114.9375  8.5346  1.5853
341  114  2  0.5242  114.1805  7.9487  1.5853
342  114  2  0.5242  115.6945  7.9487  1.5853
343  115  1  -1.0484  4.4925  11.5462  1.5853
344  115  2  0.5242  3.7355  10.9603  1.5853
345  115  2  0.5242  5.2495  10.9603  1.5853
346  116  1  -1.0484  7.4775  11.5462  1.5853
347  116  2  0.5242  6.7205  10.9603  1.5853
348  116  2  0.5242  8.2345  10.9603  1.5853
349  117  1  -1.0484  10.4625  11.5462  1.5853
350  117  2  0.5242  9.7055  10.9603  1.5853
351  117  2  0.5242  11.2195  10.9603  1.5853
352  118  1  -1.0484  13.4475  11.5462  1.5853
353  118  2  0.5242  12.6905  10.9603  1.5853
354  118  2  0.5242  14.2045  10.9603  1.5853
355  119  1  -1.0484  16.4325  11.5462  1.5853
356  119  2  0.5242  15.6755  10.9603  1.5853
357  119  2  0.5242  17.1895  10.9603  1.5853
358  120  1  -1.0484  19.4175  11.5462  1.5853
359  120  2  0.5242  18.6605  10.9603  1.5853
360  120  2  0.5242  20.1745  10.9603  1.5853
361  121  1  -1.0484  22.4025  11.5462  1.5853
362  121  2  0.5242  21.6455  10.9603  1.5853
363  121  2  0.5242  23.1595  10.9603  1.5853
364  122  1  -1.0484  25.3875  11.5462  1.5853
365  122  2  0.5242  24.6305  10.9603  1.5853
366  122  2  0.5242  26.1445  10.9603  1.5853
367  123  1  -1.0484  28.3725  11.5462  1.5853
368  123  2  0.5242  27.6155  10.9603  1.5853
369  123  2  0.5242  29.1295  10.9603  1.5853
370  124  1  -1.0484  31.3575  11.5462  1.5853
371  124  2  0.5242  30.6005  10.9603  1.5853
372  124  2  0.5242  32.1145  10.9603  1.5853
373  125  1  -1.0484  34.3425  11.5462  1.5853
374  125  2  0.5242  33.5855  10.9603  1.5853
375  125  2  0.5242  35.0995  10.9603  1.5853
376  126  1  -1.0484  37.3275  11.5462  1.5853
377  126  2  0.5242  36.5705  10.9603  1.5853
378  126  2  0.5242  38.0845  10.9603  1.5853
379  127  1  -1.0484  40.3125  11.5462  1.5853
380  127  2  0.5242  39.5555  10.9603  1.5853
381  127  2  0.5242  41.0695  10.9603  1.5853
382  128  1  -1.0484  43.2975  11.5462  1.5853
383  128  2  0.5242  42.5405  10.9603  1.5853
384  128  2  0.5242  44.0545  10.9603  1.5853
385  129  1  -1.0484  46.2825  11.5462  1.5853
386  129  2  0.5242  45.5255  10.9603  1.5853
387  129  2  0.5242  47.0395  10.9603  1.5853
388  130  1  -1.0484  49.2675  11.5462  1.5853
389  130  2  0.5242  48.5105  10.9603  1.5853
390  130  2  0.5242  50.0245  10.9603  1.5853
391  131  1  -1.0484  52.2525  11.5462  1.5853
392  131  2  0.5242  51.4955  10.9603  1.5853
393  131  2  0.5242  53.0095  10.9603  1.5853
394  132  1  -1.0484  55.2375  11.5462  1.5853
395  132  2  0.5242  54.4805  10.9603  1.5853
396  132  2  0.5242  55.9945  10.9603  1.5853
397  133  1  -1.0484  58.2225  11.5462  1.5853
398  133  2  0.5242  57.4655  10.9603  1.5853
399  133  2  0.5242  58.9795  10.9603  1.5853
400  134  1  -1.0484  61.2075  11.5462  1.5853
401  134  2  0.5242  60.4505  10.9603  1.5853
402  134  2  0.5242  61.9645  10.9603  1.5853
403  135  1  -1.0484  64.1925  11.5462  1.5853
404  135  2  0.5242  63.4355  10.9603  1.5853
405  135  2  0.5242  64.9495  10.9603  1.5853
406  136  1  -1.0484  67.1775  11.5462  1.5853
407  136  2  0.5242  66.4205  10.9603  1.5853
408  136  2  0.5242  67.9345  10.9603  1.5853
409  137  1  -1.0484  70.1625  11.5462  1.5853
410  137  2  0.5242  69.4055  10.9603  1.5853
411  137  2  0.5242  70.9195  10.9603  1.5853
412  138  1  -1.0484  73.1475  11.5462  1.5853
413  138  2  0.5242  72.3905  10.9603  1.5853
414  138  2  0.5242  73.9045  10.9603  1.5853
415  139  1  -1.0484  76.1325  11.5462  1.5853
416  139  2  0.5242  75.3755  10.9603  1.5853
417  139  2  0.5242  76.8895  10.9603  1.5853
418  140  1  -1.0484  79.1175  11.5462  1.5853
419  140  2  0.5242  78.3605  10.9603  1.5853
420  140  2  0.5242  79.8745  10.9603  1.5853
421  141  1  -1.0484  82.1025  11.5462  1.5853
422  141  2  0.5242  81.3455  10.9603  1.5853
423  141  2  0.5242  82.8595  10.9603  1.5853
424  142  1  -1.0484  85.0875  11.5462  1.5853
425  142  2  0.5242  84.3305  10.9603  1.5853
426  142  2  0.5242  85.8445  10.9603  1.5853
427  143  1  -1.0484  88.0725  11.5462  1.5853
428  143  2  0.5242  87.3155  10.9603  1.5853
429  143  2  0.5242  88.8295  10.9603  1.5853
430  144  1  -1.0484  91.0575  11.5462  1.5853
431  144  2  0.5242  90.3005  10.9603  1.5853
432  144  2  0.5242  91.8145  10.9603  1.5853
433  145  1  -1.0484  94.0425  11.5462  1.5853
434  145  2  0.5242  93.2855  10.9603  1.5853
435  145  2  0.5242  94.7995  10.9603  1.5853
436  146  1  -1.0484  97.0275  11.5462  1.5853
437  146  2  0.5242  96.2705  10.9603  1.5853
438  146  2  0.5242  97.7845  10.9603  1.5853
439  147  1  -1.0484  100.0125  11.5462  1.5853
440  147  2  0.5242  99.2555  10.9603  1.5853
441  147  2  0.5242  100.7695  10.9603  1.5853
442  148  1  -1.0484  102.9975  11.5462  1.5853
443  148  2  0.5242  102.2405  10.9603  1.5853
444  148  2  0.5242  103.7545  10.9603  1.5853
445  149  1  -1.0484  105.9825  11.5462  1.5853
446  149  2  0.5242  105.2255  10.9603  1.5853
447  149  2  0.5242  106.7395  10.9603  1.5853
448  150  1  -1.0484  108.9675  11.5462  1.5853
449  150  2  0.5242  108.2105  10.9603  1.5853
450  150  2  0.5242  109.7245  10.9603  1.5853
451  151  1  -1.0484  111.9525  11.5462  1.5853
452  151  2  0.5242  111.1955  10.9603  1.5853
453  151  2  0.5242  112.7095  10.9603  1.5853
454  152  1  -1.0484  114.9375  11.5462  1.5853
455  152  2  0.5242  114.1805  10.9603  1.5853
456  152  2  0.5242  115.6945  10.9603  1.5853
457  153  1  -1.0484  4.4925  14.5577  1.5853
458  153  2  0.5242  3.7355  13.9718  1.5853
459  153  2  0.5242  5.2495  13.9718  1.5853
460  154  1  -1.0484  7.4775  14.5577  1.5853
461  154  2  0.5242  6.7205  13.9718  1.5853
462  154  2  0.5242  8.2345  13.9718  1.5853
463  155  1  -1.0484  10.4625  14.5577  1.5853
464  155  2  0.5242  9.7055  13.9718  1.5853
465  155  2  0.5242  11.2195  13.9718  1.5853
466  156  1  -1.0484  13.4475  14.5577  1.5853
467  156  2  0.5242  12.6905  13.9718  1.5853
468  156  2  0.5242  14.2045  13.9718  1.5853
469  157  1  -1.0484  16.4325  14.5577  1.5853
470  157  2  0.5242  15.6755  13.9718  1.5853
471  157  2  0.5242  17.1895  13.9718  1.5853
472  158  1  -1.0484  19.4175  14.5577  1.5853
473  158  2  0.5242  18.6605  13.9718  1.5853
474  158  2  0.5242  20.1745  13.9718  1.5853
475  159  1  -1.0484  22.4025  14.5577  1.5853
476  159  2  0.5242  21.6455  13.9718  1.5853
477  159  2  0.5242  23.1595  13.9718  1.5853
478  160  1  -1.0484  25.3875  14.5577  1.5853
479  160  2  0.5242  24.6305  13.9718  1.5853
480  160  2  0.5242  26.1445  13.9718  1.5853
481  161  1  -1.0484  28.3725  14.5577  1.5853
482  161  2  0.5242  27.6155  13.9718  1.5853
483  161  2  0.5242  29.1295  13.9718  1.5853
484  162  1  -1.0484  31.3575  14.5577  1.5853
485  162  2  0.5242  30.6005  13.9718  1.5853
486  162  2  0.5242  32.1145  13.9718  1.5853
487  163  1  -1.0484  34.3425  14.5577  1.5853
488  163  2  0.5242  33.5855  13.9718  1.5853
489  163  2  0.5242  35.0995  13.9718  1.5853
490  164  1  -1.0484  37.3275  14.5577  1.5853
491  164  2  0.5242  36.5705  13.9718  1.5853
492  164  2  0.5242  38.0845  13.9718  1.5853
493  165  1  -1.0484  40.3125  14.5577  1.5853
494  165  2  0.5242  39.5555  13.9718  1.5853
495  165  2  0.5242  41.0695  13.9718  1.5853
496  166  1  -1.0484  43.2975  14.5577  1.5853
497  166  2  0.5242  42.5405  13.9718  1.5853
498  166  2  0.5242  44.0545  13.9718  1.5853
499  167  1  -1.0484  46.2825  14.5577  1.5853
500  167  2  0.5242  45.5255  13.9718  1.5853
501  167  2  0.5242  47.0395  13.9718  1.5853
502  168  1  -1.0484  49.2675  14.5577  1.5853
503  168  2  0.5242  48.5105  13.9718  1.5853
504  168  2  0.5242  50.0245  13.9718  1.5853
505  169  1  -1.0484  52.2525  14.5577  1.5853
506  169  2  0.5242  51.4955  13.9718  1.5853
507  169  2  0.5242  53.0095  13.9718  1.5853
508  170  1  -1.0484  55.2375  14.5577  1.5853
509  170  2  0.5242  54.4805  13.9718  1.5853
510  170  2  0.5242  55.9945  13.9718  1.5853
511  171  1  -1.0484  58.2225  14.5577  1.5853
512  171  2  0.5242  57.4655  13.9718  1.5853
513  171  2  0.5242  58.9795  13.9718  1.5853
514  172  1  -1.0484  61.2075  14.5577  1.5853
515  172  2  0.5242  60.4505  13.9718  1.5853
516  172  2  0.5242  61.9645  13.9718  1.5853
517  173  1  -1.0484  64.1925  14.5577  1.5853
518  173  2  0.5242  63.4355  13.9718  1.5853
519  173  2  0.5242  64.9495  13.9718  1.5853
520  174  1  -1.0484  67.1775  14.5577  1.5853
521  174  2  0.5242  66.4205  13.9718  1.5853
522  174  2  0.5242  67.9345  13.9718  1.5853
523  175  1  -1.0484  70.1625  14.5577  1.5853
524  175  2  0.5242  69.4055  13.9718  1.5853
525  175  2  0.5242  70.9195  13.9718  1.5853
526  176  1  -1.0484  73.1475  14.5577  1.5853
527  176  2  0.5242  72.3905  13.9718  1.5853
528  176  2  0.5242  73.9045  13.9718  1.5853
529  177  1  -1.0484  76.1325  14.5577  1.5853
530  177  2  0.5242  75.3755  13.9718  1.5853
531  177  2  0.5242  76.8895  13.9718  1.5853
532  178  1  -1.0484  79.1175  14.5577  1.5853
533  178  2  0.5242  78.3605  13.9718  1.5853
534  178  2  0.5242  79.8745  13.9718  1.5853
535  179  1  -1.0484  82.1025  14.5577  1.5853
536  179  2  0.5242  81.3455  13.9718  1.5853
537  179  2  0.5242  82.8595  13.9718  1.5853
538  180  1  -1.0484  85.0875  14.5577  1.5853
539  180  2  0.5242  84.3305  13.9718  1.5853
540  180  2  0.5242  85.8445  13.9718  1.5853
541  181  1  -1.0484  88.0725  14.5577  1.5853
542  181  2  0.5242  87.3155  13.9718  1.5853
543  181  2  0.5242  88.8295  13.9718  1.5853
544  182  1  -1.0484  91.0575  14.5577  1.5853
545  182  2  0.5242  90.3005  13.9718  1.5853
546  182  2  0.5242  91.8145  13.9718  1.5853
547  183  1  -1.0484  94.0425  14.5577  1.5853
548  183  2  0.5242  93.2855  13.9718  1.5853
549  183  2  0.5242  94.7995  13.9718  1.5853
550  184  1  -1.0484  97.0275  14.5577  1.5853
551  184  2  0.5242  96.2705  13.9718  1.5853
552  184  2  0.5242  97.7845  13.9718  1.5853
553  185  1  -1.0484  100.0125  14.5577  1.5853
554  185  2  0.5242  99.2555  13.9718  1.5853
555  185  2  0.5242  100.7695  13.9718  1.5853
556  186  1  -1.0484  102.9975  14.5577  1.5853
557  186  2  0.5242  102.2405  13.9718  1.5853
558  186  2  0.5242  103.7545  13.9718  1.5853
559  187  1  -1.0484  105.9825  14.5577  1.5853
560  187  2  0.5242  105.2255  13.9718  1.5853
561  187  2  0.5242  106.7395  13.9718  1.5853
562  188  1  -1.0484  108.9675  14.5577  1.5853
563  188  2  0.5242  108.2105  13.9718  1.5853
564  188  2  0.5242  109.7245  13.9718  1.5853
565  189  1  -1.0484  111.9525  14.5577  1.5853
566  189  2  0.5242  111.1955  13.9718  1.5853
567  189  2  0.5242  112.7095  13.9718  1.5853
568  190  1  -1.0484  114.9375  14.5577  1.5853
569  190  2  0.5242  114.1805  13.9718  1.5853
570  190  2  0.5242  115.6945  13.9718  1.5853
571  191  1  -1.0484  4.4925  17.5692  1.5853
572  191  2  0.5242  3.7355  16.9833  1.5853
573  191  2  0.5242  5.2495  16.9833  1.5853
574  192  1  -1.0484  7.4775  17.5692  1.5853
575  192  2  0.5242  6.7205  16.9833  1.5853
576  192  2  0.5242  8.2345  16.9833  1.5853
577  193  1  -1.0484  10.4625  17.5692  1.5853
578  193  2  0.5242  9.7055  16.9833  1.5853
579  193  2  0.5242  11.2195  16.9833  1.5853
580  194  1  -1.0484  13.4475  17.5692  1.5853
581  194  2  0.5242  12.6905  16.9833  1.5853
582  194  2  0.5242  14.2045  16.9833  1.5853
583  195  1  -1.0484  16.4325  17.5692  1.5853
584  195  2  0.5242  15.6755  16.9833  1.5853
585  195  2  0.5242  17.1895  16.9833  1.5853
586  196  1  -1.0484  19.4175  17.5692  1.5853
587  196  2  0.5242  18.6605  16.9833  1.5853
588  196  2  0.5242  20.1745  16.9833  1.5853
589  197  1  -1.0484  22.4025  17.5692  1.5853
590  197  2  0.5242  21.6455  16.9833  1.5853
591  197  2  0.5242  23.1595  16.9833  1.5853
592  198  1  -1.0484  25.3875  17.5692  1.5853
593  198  2  0.5242  24.6305  16.9833  1.5853
594  198  2  0.5242  26.1445  16.9833  1.5853
595  199  1  -1.0484  28.3725  17.5692  1.5853
596  199  2  0.5242  27.6155  16.9833  1.5853
597  199  2  0.5242  29.1295  16.9833  1.5853
598  200  1  -1.0484  31.3575  17.5692  1.5853
599  200  2  0.5242  30.6005  16.9833  1.5853
600  200  2  0.5242  32.1145  16.9833  1.5853
601  201  1  -1.0484  34.3425  17.5692  1.5853
602  201  2  0.5242  33.5855  16.9833  1.5853
603  201  2  0.5242  35.0995  16.9833  1.5853
604  202  1  -1.0484  37.3275  17.5692  1.5853
605  202  2  0.5242  36.5705  16.9833  1.5853
606  202  2  0.5242  38.0845  16.9833  1.5853
607  203  1  -1.0484  40.3125  17.5692  1.5853
608  203  2  0.5242  39.5555  16.9833  1.5853
609  203  2  0.5242  41.0695  16.9833  1.5853
610  204  1  -1.0484  43.2975  17.5692  1.5853
611  204  2  0.5242  42.5405  16.9833  1.5853
612  204  2  0.5242  44.0545  16.9833  1.5853
613  205  1  -1.0484  46.2825  17.5692  1.5853
614  205  2  0.5242  45.5255  16.9833  1.5853
615  205  2  0.5242  47.0395  16.9833  1.5853
616  206  1  -1.0484  49.2675  17.5692  1.5853
617  206  2  0.5242  48.5105  16.9833  1.5853
618  206  2  0.5242  50.0245  16.9833  1.5853
619  207  1  -1.0484  52.2525  17.5692  1.5853
620  207  2  0.5242  51.4955  16.9833  1.5853
621  207  2  0.5242  53.0095  16.9833  1.5853
622  208  1  -1.0484  55.2375  17.5692  1.5853
623  208  2  0.5242  54.4805  16.9833  1.5853
624  208  2  0.5242  55.9945  16.9833  1.5853
625  209  1  -1.0484  58.2225  17.5692  1.5853
626  209  2  0.5242  57.4655  16.9833  1.5853
627  209  2  0.5242  58.9795  16.9833  1.5853
628  210  1  -1.0484  61.2075  17.5692  1.5853
629  210  2  0.5242  60.4505  16.9833  1.5853
630  210  2  0.5242  61.9645  16.9833  1.5853
631  211  1  -1.0484  64.1925  17.5692  1.5853
632  211  2  0.5242  63.4355  16.9833  1.5853
633  211  2  0.5242  64.9495  16.9833  1.5853
634  212  1  -1.0484  67.1775  17.5692  1.5853
635  212  2  0.5242  66.4205  16.9833  1.5853
636  212  2  0.5242  67.9345  16.9833  1.5853
637  213  1  -1.0484  70.1625  17.5692  1.5853
638  213  2  0.5242  69.4055  16.9833  1.5853
639  213  2  0.5242  70.9195  16.9833  1.5853
640  214  1  -1.0484  73.1475  17.5692  1.5853
641  214  2  0.5242  72.3905  16.9833  1.5853
642  214  2  0.5242  73.9045  16.9833  1.5853
643  215  1  -1.0484  76.1325  17.5692  1.5853
644  215  2  0.5242  75.3755  16.9833  1.5853
645  215  2  0.5242  76.8895  16.9833  1.5853
646  216  1  -1.0484  79.1175  17.5692  1.5853
647  216  2  0.5242  78.3605  16.9833  1.5853
648  216  2  0.5242  79.8745  16.9833  1.5853
649  217  1  -1.0484  82.1025  17.5692  1.5853
650  217  2  0.5242  81.3455  16.9833  1.5853
651  217  2  0.5242  82.8595  16.9833  1.5853
652  218  1  -1.0484  85.0875  17.5692  1.5853
653  218  2  0.5242  84.3305  16.9833  1.5853
654  218  2  0.5242  85.8445  16.9833  1.5853
655  219  1  -1.0484  88.0725  17.5692  1.5853
656  219  2  0.5242  87.3155  16.9833  1.5853