Start	File	for	LAMMPS			
      
41358 atoms     
25480 bonds     
12740 angles     
      
6 atom types    
1 bond types    
1 angle types    
      
-20 289.018 xlo xhi   
0 40.42 ylo yhi   
0 57.72 zlo zhi   
      
Masses      
      
1 15.9994     
2 1.008     
3 22.9898     
4 35.453     
5 12.0107     
6 12.0107     
      
Bond Coeffs     
      
1 450 0.9572    
      
Angle Coeffs     
      
1 55 104.52    
      
Atoms      
      
1 1 1 -1.0484 4.5328 2.6092 1.443
2 1 2 0.5242 3.7759 2.0233 1.443
3 1 2 0.5242 5.2898 2.0233 1.443
4 2 1 -1.0484 7.5985 2.6092 1.443
5 2 2 0.5242 6.8416 2.0233 1.443
6 2 2 0.5242 8.3555 2.0233 1.443
7 3 1 -1.0484 10.6642 2.6092 1.443
8 3 2 0.5242 9.9072 2.0233 1.443
9 3 2 0.5242 11.4211 2.0233 1.443
10 4 1 -1.0484 13.7299 2.6092 1.443
11 4 2 0.5242 12.9729 2.0233 1.443
12 4 2 0.5242 14.4868 2.0233 1.443
13 5 1 -1.0484 16.7955 2.6092 1.443
14 5 2 0.5242 16.0386 2.0233 1.443
15 5 2 0.5242 17.5525 2.0233 1.443
16 6 1 -1.0484 19.8612 2.6092 1.443
17 6 2 0.5242 19.1043 2.0233 1.443
18 6 2 0.5242 20.6182 2.0233 1.443
19 7 1 -1.0484 22.9269 2.6092 1.443
20 7 2 0.5242 22.1699 2.0233 1.443
21 7 2 0.5242 23.6838 2.0233 1.443
22 8 1 -1.0484 25.9926 2.6092 1.443
23 8 2 0.5242 25.2356 2.0233 1.443
24 8 2 0.5242 26.7495 2.0233 1.443
25 9 1 -1.0484 29.0582 2.6092 1.443
26 9 2 0.5242 28.3013 2.0233 1.443
27 9 2 0.5242 29.8152 2.0233 1.443
28 10 1 -1.0484 32.1239 2.6092 1.443
29 10 2 0.5242 31.367 2.0233 1.443
30 10 2 0.5242 32.8809 2.0233 1.443
31 11 1 -1.0484 35.1896 2.6092 1.443
32 11 2 0.5242 34.4326 2.0233 1.443
33 11 2 0.5242 35.9465 2.0233 1.443
34 12 1 -1.0484 38.2553 2.6092 1.443
35 12 2 0.5242 37.4983 2.0233 1.443
36 12 2 0.5242 39.0122 2.0233 1.443
37 13 1 -1.0484 41.3209 2.6092 1.443
38 13 2 0.5242 40.564 2.0233 1.443
39 13 2 0.5242 42.0779 2.0233 1.443
40 14 1 -1.0484 44.3866 2.6092 1.443
41 14 2 0.5242 43.6297 2.0233 1.443
42 14 2 0.5242 45.1436 2.0233 1.443
43 15 1 -1.0484 47.4523 2.6092 1.443
44 15 2 0.5242 46.6953 2.0233 1.443
45 15 2 0.5242 48.2092 2.0233 1.443
46 16 1 -1.0484 50.518 2.6092 1.443
47 16 2 0.5242 49.761 2.0233 1.443
48 16 2 0.5242 51.2749 2.0233 1.443
49 17 1 -1.0484 53.5836 2.6092 1.443
50 17 2 0.5242 52.8267 2.0233 1.443
51 17 2 0.5242 54.3406 2.0233 1.443
52 18 1 -1.0484 56.6493 2.6092 1.443
53 18 2 0.5242 55.8924 2.0233 1.443
54 18 2 0.5242 57.4063 2.0233 1.443
55 19 1 -1.0484 59.715 2.6092 1.443
56 19 2 0.5242 58.958 2.0233 1.443
57 19 2 0.5242 60.472 2.0233 1.443
58 20 1 -1.0484 62.7807 2.6092 1.443
59 20 2 0.5242 62.0237 2.0233 1.443
60 20 2 0.5242 63.5376 2.0233 1.443
61 21 1 -1.0484 65.8464 2.6092 1.443
62 21 2 0.5242 65.0894 2.0233 1.443
63 21 2 0.5242 66.6033 2.0233 1.443
64 22 1 -1.0484 68.912 2.6092 1.443
65 22 2 0.5242 68.1551 2.0233 1.443
66 22 2 0.5242 69.669 2.0233 1.443
67 23 1 -1.0484 71.9777 2.6092 1.443
68 23 2 0.5242 71.2208 2.0233 1.443
69 23 2 0.5242 72.7347 2.0233 1.443
70 24 1 -1.0484 75.0434 2.6092 1.443
71 24 2 0.5242 74.2864 2.0233 1.443
72 24 2 0.5242 75.8003 2.0233 1.443
73 25 1 -1.0484 78.1091 2.6092 1.443
74 25 2 0.5242 77.3521 2.0233 1.443
75 25 2 0.5242 78.866 2.0233 1.443
76 26 1 -1.0484 81.1747 2.6092 1.443
77 26 2 0.5242 80.4178 2.0233 1.443
78 26 2 0.5242 81.9317 2.0233 1.443
79 27 1 -1.0484 84.2404 2.6092 1.443
80 27 2 0.5242 83.4835 2.0233 1.443
81 27 2 0.5242 84.9974 2.0233 1.443
82 28 1 -1.0484 87.3061 2.6092 1.443
83 28 2 0.5242 86.5491 2.0233 1.443
84 28 2 0.5242 88.063 2.0233 1.443
85 29 1 -1.0484 90.3718 2.6092 1.443
86 29 2 0.5242 89.6148 2.0233 1.443
87 29 2 0.5242 91.1287 2.0233 1.443
88 30 1 -1.0484 93.4374 2.6092 1.443
89 30 2 0.5242 92.6805 2.0233 1.443
90 30 2 0.5242 94.1944 2.0233 1.443
91 31 1 -1.0484 96.5031 2.6092 1.443
92 31 2 0.5242 95.7462 2.0233 1.443
93 31 2 0.5242 97.2601 2.0233 1.443
94 32 1 -1.0484 99.5688 2.6092 1.443
95 32 2 0.5242 98.8118 2.0233 1.443
96 32 2 0.5242 100.3257 2.0233 1.443
97 33 1 -1.0484 102.6345 2.6092 1.443
98 33 2 0.5242 101.8775 2.0233 1.443
99 33 2 0.5242 103.3914 2.0233 1.443
100 34 1 -1.0484 105.7001 2.6092 1.443
101 34 2 0.5242 104.9432 2.0233 1.443
102 34 2 0.5242 106.4571 2.0233 1.443
103 35 1 -1.0484 108.7658 2.6092 1.443
104 35 2 0.5242 108.0089 2.0233 1.443
105 35 2 0.5242 109.5228 2.0233 1.443
106 36 1 -1.0484 111.8315 2.6092 1.443
107 36 2 0.5242 111.0745 2.0233 1.443
108 36 2 0.5242 112.5884 2.0233 1.443
109 37 1 -1.0484 114.8972 2.6092 1.443
110 37 2 0.5242 114.1402 2.0233 1.443
111 37 2 0.5242 115.6541 2.0233 1.443
112 38 1 -1.0484 4.5328 5.7185 1.443
113 38 2 0.5242 3.7759 5.1326 1.443
114 38 2 0.5242 5.2898 5.1326 1.443
115 39 1 -1.0484 7.5985 5.7185 1.443
116 39 2 0.5242 6.8416 5.1326 1.443
117 39 2 0.5242 8.3555 5.1326 1.443
118 40 1 -1.0484 10.6642 5.7185 1.443
119 40 2 0.5242 9.9072 5.1326 1.443
120 40 2 0.5242 11.4211 5.1326 1.443
121 41 1 -1.0484 13.7299 5.7185 1.443
122 41 2 0.5242 12.9729 5.1326 1.443
123 41 2 0.5242 14.4868 5.1326 1.443
124 42 1 -1.0484 16.7955 5.7185 1.443
125 42 2 0.5242 16.0386 5.1326 1.443
126 42 2 0.5242 17.5525 5.1326 1.443
127 43 1 -1.0484 19.8612 5.7185 1.443
128 43 2 0.5242 19.1043 5.1326 1.443
129 43 2 0.5242 20.6182 5.1326 1.443
130 44 1 -1.0484 22.9269 5.7185 1.443
131 44 2 0.5242 22.1699 5.1326 1.443
132 44 2 0.5242 23.6838 5.1326 1.443
133 45 1 -1.0484 25.9926 5.7185 1.443
134 45 2 0.5242 25.2356 5.1326 1.443
135 45 2 0.5242 26.7495 5.1326 1.443
136 46 1 -1.0484 29.0582 5.7185 1.443
137 46 2 0.5242 28.3013 5.1326 1.443
138 46 2 0.5242 29.8152 5.1326 1.443
139 47 1 -1.0484 32.1239 5.7185 1.443
140 47 2 0.5242 31.367 5.1326 1.443
141 47 2 0.5242 32.8809 5.1326 1.443
142 48 1 -1.0484 35.1896 5.7185 1.443
143 48 2 0.5242 34.4326 5.1326 1.443
144 48 2 0.5242 35.9465 5.1326 1.443
145 49 1 -1.0484 38.2553 5.7185 1.443
146 49 2 0.5242 37.4983 5.1326 1.443
147 49 2 0.5242 39.0122 5.1326 1.443
148 50 1 -1.0484 41.3209 5.7185 1.443
149 50 2 0.5242 40.564 5.1326 1.443
150 50 2 0.5242 42.0779 5.1326 1.443
151 51 1 -1.0484 44.3866 5.7185 1.443
152 51 2 0.5242 43.6297 5.1326 1.443
153 51 2 0.5242 45.1436 5.1326 1.443
154 52 1 -1.0484 47.4523 5.7185 1.443
155 52 2 0.5242 46.6953 5.1326 1.443
156 52 2 0.5242 48.2092 5.1326 1.443
157 53 1 -1.0484 50.518 5.7185 1.443
158 53 2 0.5242 49.761 5.1326 1.443
159 53 2 0.5242 51.2749 5.1326 1.443
160 54 1 -1.0484 53.5836 5.7185 1.443
161 54 2 0.5242 52.8267 5.1326 1.443
162 54 2 0.5242 54.3406 5.1326 1.443
163 55 1 -1.0484 56.6493 5.7185 1.443
164 55 2 0.5242 55.8924 5.1326 1.443
165 55 2 0.5242 57.4063 5.1326 1.443
166 56 1 -1.0484 59.715 5.7185 1.443
167 56 2 0.5242 58.958 5.1326 1.443
168 56 2 0.5242 60.472 5.1326 1.443
169 57 1 -1.0484 62.7807 5.7185 1.443
170 57 2 0.5242 62.0237 5.1326 1.443
171 57 2 0.5242 63.5376 5.1326 1.443
172 58 1 -1.0484 65.8464 5.7185 1.443
173 58 2 0.5242 65.0894 5.1326 1.443
174 58 2 0.5242 66.6033 5.1326 1.443
175 59 1 -1.0484 68.912 5.7185 1.443
176 59 2 0.5242 68.1551 5.1326 1.443
177 59 2 0.5242 69.669 5.1326 1.443
178 60 1 -1.0484 71.9777 5.7185 1.443
179 60 2 0.5242 71.2208 5.1326 1.443
180 60 2 0.5242 72.7347 5.1326 1.443
181 61 1 -1.0484 75.0434 5.7185 1.443
182 61 2 0.5242 74.2864 5.1326 1.443
183 61 2 0.5242 75.8003 5.1326 1.443
184 62 1 -1.0484 78.1091 5.7185 1.443
185 62 2 0.5242 77.3521 5.1326 1.443
186 62 2 0.5242 78.866 5.1326 1.443
187 63 1 -1.0484 81.1747 5.7185 1.443
188 63 2 0.5242 80.4178 5.1326 1.443
189 63 2 0.5242 81.9317 5.1326 1.443
190 64 1 -1.0484 84.2404 5.7185 1.443
191 64 2 0.5242 83.4835 5.1326 1.443
192 64 2 0.5242 84.9974 5.1326 1.443
193 65 1 -1.0484 87.3061 5.7185 1.443
194 65 2 0.5242 86.5491 5.1326 1.443
195 65 2 0.5242 88.063 5.1326 1.443
196 66 1 -1.0484 90.3718 5.7185 1.443
197 66 2 0.5242 89.6148 5.1326 1.443
198 66 2 0.5242 91.1287 5.1326 1.443
199 67 1 -1.0484 93.4374 5.7185 1.443
200 67 2 0.5242 92.6805 5.1326 1.443
201 67 2 0.5242 94.1944 5.1326 1.443
202 68 1 -1.0484 96.5031 5.7185 1.443
203 68 2 0.5242 95.7462 5.1326 1.443
204 68 2 0.5242 97.2601 5.1326 1.443
205 69 1 -1.0484 99.5688 5.7185 1.443
206 69 2 0.5242 98.8118 5.1326 1.443
207 69 2 0.5242 100.3257 5.1326 1.443
208 70 1 -1.0484 102.6345 5.7185 1.443
209 70 2 0.5242 101.8775 5.1326 1.443
210 70 2 0.5242 103.3914 5.1326 1.443
211 71 1 -1.0484 105.7001 5.7185 1.443
212 71 2 0.5242 104.9432 5.1326 1.443
213 71 2 0.5242 106.4571 5.1326 1.443
214 72 1 -1.0484 108.7658 5.7185 1.443
215 72 2 0.5242 108.0089 5.1326 1.443
216 72 2 0.5242 109.5228 5.1326 1.443
217 73 1 -1.0484 111.8315 5.7185 1.443
218 73 2 0.5242 111.0745 5.1326 1.443
219 73 2 0.5242 112.5884 5.1326 1.443
220 74 1 -1.0484 114.8972 5.7185 1.443
221 74 2 0.5242 114.1402 5.1326 1.443
222 74 2 0.5242 115.6541 5.1326 1.443
223 75 1 -1.0484 4.5328 8.8277 1.443
224 75 2 0.5242 3.7759 8.2418 1.443
225 75 2 0.5242 5.2898 8.2418 1.443
226 76 1 -1.0484 7.5985 8.8277 1.443
227 76 2 0.5242 6.8416 8.2418 1.443
228 76 2 0.5242 8.3555 8.2418 1.443
229 77 1 -1.0484 10.6642 8.8277 1.443
230 77 2 0.5242 9.9072 8.2418 1.443
231 77 2 0.5242 11.4211 8.2418 1.443
232 78 1 -1.0484 13.7299 8.8277 1.443
233 78 2 0.5242 12.9729 8.2418 1.443
234 78 2 0.5242 14.4868 8.2418 1.443
235 79 1 -1.0484 16.7955 8.8277 1.443
236 79 2 0.5242 16.0386 8.2418 1.443
237 79 2 0.5242 17.5525 8.2418 1.443
238 80 1 -1.0484 19.8612 8.8277 1.443
239 80 2 0.5242 19.1043 8.2418 1.443
240 80 2 0.5242 20.6182 8.2418 1.443
241 81 1 -1.0484 22.9269 8.8277 1.443
242 81 2 0.5242 22.1699 8.2418 1.443
243 81 2 0.5242 23.6838 8.2418 1.443
244 82 1 -1.0484 25.9926 8.8277 1.443
245 82 2 0.5242 25.2356 8.2418 1.443
246 82 2 0.5242 26.7495 8.2418 1.443
247 83 1 -1.0484 29.0582 8.8277 1.443
248 83 2 0.5242 28.3013 8.2418 1.443
249 83 2 0.5242 29.8152 8.2418 1.443
250 84 1 -1.0484 32.1239 8.8277 1.443
251 84 2 0.5242 31.367 8.2418 1.443
252 84 2 0.5242 32.8809 8.2418 1.443
253 85 1 -1.0484 35.1896 8.8277 1.443
254 85 2 0.5242 34.4326 8.2418 1.443
255 85 2 0.5242 35.9465 8.2418 1.443
256 86 1 -1.0484 38.2553 8.8277 1.443
257 86 2 0.5242 37.4983 8.2418 1.443
258 86 2 0.5242 39.0122 8.2418 1.443
259 87 1 -1.0484 41.3209 8.8277 1.443
260 87 2 0.5242 40.564 8.2418 1.443
261 87 2 0.5242 42.0779 8.2418 1.443
262 88 1 -1.0484 44.3866 8.8277 1.443
263 88 2 0.5242 43.6297 8.2418 1.443
264 88 2 0.5242 45.1436 8.2418 1.443
265 89 1 -1.0484 47.4523 8.8277 1.443
266 89 2 0.5242 46.6953 8.2418 1.443
267 89 2 0.5242 48.2092 8.2418 1.443
268 90 1 -1.0484 50.518 8.8277 1.443
269 90 2 0.5242 49.761 8.2418 1.443
270 90 2 0.5242 51.2749 8.2418 1.443
271 91 1 -1.0484 53.5836 8.8277 1.443
272 91 2 0.5242 52.8267 8.2418 1.443
273 91 2 0.5242 54.3406 8.2418 1.443
274 92 1 -1.0484 56.6493 8.8277 1.443
275 92 2 0.5242 55.8924 8.2418 1.443
276 92 2 0.5242 57.4063 8.2418 1.443
277 93 1 -1.0484 59.715 8.8277 1.443
278 93 2 0.5242 58.958 8.2418 1.443
279 93 2 0.5242 60.472 8.2418 1.443
280 94 1 -1.0484 62.7807 8.8277 1.443
281 94 2 0.5242 62.0237 8.2418 1.443
282 94 2 0.5242 63.5376 8.2418 1.443
283 95 1 -1.0484 65.8464 8.8277 1.443
284 95 2 0.5242 65.0894 8.2418 1.443
285 95 2 0.5242 66.6033 8.2418 1.443
286 96 1 -1.0484 68.912 8.8277 1.443
287 96 2 0.5242 68.1551 8.2418 1.443
288 96 2 0.5242 69.669 8.2418 1.443
289 97 1 -1.0484 71.9777 8.8277 1.443
290 97 2 0.5242 71.2208 8.2418 1.443
291 97 2 0.5242 72.7347 8.2418 1.443
292 98 1 -1.0484 75.0434 8.8277 1.443
293 98 2 0.5242 74.2864 8.2418 1.443
294 98 2 0.5242 75.8003 8.2418 1.443
295 99 1 -1.0484 78.1091 8.8277 1.443
296 99 2 0.5242 77.3521 8.2418 1.443
297 99 2 0.5242 78.866 8.2418 1.443
298 100 1 -1.0484 81.1747 8.8277 1.443
299 100 2 0.5242 80.4178 8.2418 1.443
300 100 2 0.5242 81.9317 8.2418 1.443
301 101 1 -1.0484 84.2404 8.8277 1.443
302 101 2 0.5242 83.4835 8.2418 1.443
303 101 2 0.5242 84.9974 8.2418 1.443
304 102 1 -1.0484 87.3061 8.8277 1.443
305 102 2 0.5242 86.5491 8.2418 1.443
306 102 2 0.5242 88.063 8.2418 1.443
307 103 1 -1.0484 90.3718 8.8277 1.443
308 103 2 0.5242 89.6148 8.2418 1.443
309 103 2 0.5242 91.1287 8.2418 1.443
310 104 1 -1.0484 93.4374 8.8277 1.443
311 104 2 0.5242 92.6805 8.2418 1.443
312 104 2 0.5242 94.1944 8.2418 1.443
313 105 1 -1.0484 96.5031 8.8277 1.443
314 105 2 0.5242 95.7462 8.2418 1.443
315 105 2 0.5242 97.2601 8.2418 1.443
316 106 1 -1.0484 99.5688 8.8277 1.443
317 106 2 0.5242 98.8118 8.2418 1.443
318 106 2 0.5242 100.3257 8.2418 1.443
319 107 1 -1.0484 102.6345 8.8277 1.443
320 107 2 0.5242 101.8775 8.2418 1.443
321 107 2 0.5242 103.3914 8.2418 1.443
322 108 1 -1.0484 105.7001 8.8277 1.443
323 108 2 0.5242 104.9432 8.2418 1.443
324 108 2 0.5242 106.4571 8.2418 1.443
325 109 1 -1.0484 108.7658 8.8277 1.443
326 109 2 0.5242 108.0089 8.2418 1.443
327 109 2 0.5242 109.5228 8.2418 1.443
328 110 1 -1.0484 111.8315 8.8277 1.443
329 110 2 0.5242 111.0745 8.2418 1.443
330 110 2 0.5242 112.5884 8.2418 1.443
331 111 1 -1.0484 114.8972 8.8277 1.443
332 111 2 0.5242 114.1402 8.2418 1.443
333 111 2 0.5242 115.6541 8.2418 1.443
334 112 1 -1.0484 4.5328 11.9369 1.443
335 112 2 0.5242 3.7759 11.351 1.443
336 112 2 0.5242 5.2898 11.351 1.443
337 113 1 -1.0484 7.5985 11.9369 1.443
338 113 2 0.5242 6.8416 11.351 1.443
339 113 2 0.5242 8.3555 11.351 1.443
340 114 1 -1.0484 10.6642 11.9369 1.443
341 114 2 0.5242 9.9072 11.351 1.443
342 114 2 0.5242 11.4211 11.351 1.443
343 115 1 -1.0484 13.7299 11.9369 1.443
344 115 2 0.5242 12.9729 11.351 1.443
345 115 2 0.5242 14.4868 11.351 1.443
346 116 1 -1.0484 16.7955 11.9369 1.443
347 116 2 0.5242 16.0386 11.351 1.443
348 116 2 0.5242 17.5525 11.351 1.443
349 117 1 -1.0484 19.8612 11.9369 1.443
350 117 2 0.5242 19.1043 11.351 1.443
351 117 2 0.5242 20.6182 11.351 1.443
352 118 1 -1.0484 22.9269 11.9369 1.443
353 118 2 0.5242 22.1699 11.351 1.443
354 118 2 0.5242 23.6838 11.351 1.443
355 119 1 -1.0484 25.9926 11.9369 1.443
356 119 2 0.5242 25.2356 11.351 1.443
357 119 2 0.5242 26.7495 11.351 1.443
358 120 1 -1.0484 29.0582 11.9369 1.443
359 120 2 0.5242 28.3013 11.351 1.443
360 120 2 0.5242 29.8152 11.351 1.443
361 121 1 -1.0484 32.1239 11.9369 1.443
362 121 2 0.5242 31.367 11.351 1.443
363 121 2 0.5242 32.8809 11.351 1.443
364 122 1 -1.0484 35.1896 11.9369 1.443
365 122 2 0.5242 34.4326 11.351 1.443
366 122 2 0.5242 35.9465 11.351 1.443
367 123 1 -1.0484 38.2553 11.9369 1.443
368 123 2 0.5242 37.4983 11.351 1.443
369 123 2 0.5242 39.0122 11.351 1.443
370 124 1 -1.0484 41.3209 11.9369 1.443
371 124 2 0.5242 40.564 11.351 1.443
372 124 2 0.5242 42.0779 11.351 1.443
373 125 1 -1.0484 44.3866 11.9369 1.443
374 125 2 0.5242 43.6297 11.351 1.443
375 125 2 0.5242 45.1436 11.351 1.443
376 126 1 -1.0484 47.4523 11.9369 1.443
377 126 2 0.5242 46.6953 11.351 1.443
378 126 2 0.5242 48.2092 11.351 1.443
379 127 1 -1.0484 50.518 11.9369 1.443
380 127 2 0.5242 49.761 11.351 1.443
381 127 2 0.5242 51.2749 11.351 1.443
382 128 1 -1.0484 53.5836 11.9369 1.443
383 128 2 0.5242 52.8267 11.351 1.443
384 128 2 0.5242 54.3406 11.351 1.443
385 129 1 -1.0484 56.6493 11.9369 1.443
386 129 2 0.5242 55.8924 11.351 1.443
387 129 2 0.5242 57.4063 11.351 1.443
388 130 1 -1.0484 59.715 11.9369 1.443
389 130 2 0.5242 58.958 11.351 1.443
390 130 2 0.5242 60.472 11.351 1.443
391 131 1 -1.0484 62.7807 11.9369 1.443
392 131 2 0.5242 62.0237 11.351 1.443
393 131 2 0.5242 63.5376 11.351 1.443
394 132 1 -1.0484 65.8464 11.9369 1.443
395 132 2 0.5242 65.0894 11.351 1.443
396 132 2 0.5242 66.6033 11.351 1.443
397 133 1 -1.0484 68.912 11.9369 1.443
398 133 2 0.5242 68.1551 11.351 1.443
399 133 2 0.5242 69.669 11.351 1.443
400 134 1 -1.0484 71.9777 11.9369 1.443
401 134 2 0.5242 71.2208 11.351 1.443
402 134 2 0.5242 72.7347 11.351 1.443
403 135 1 -1.0484 75.0434 11.9369 1.443
404 135 2 0.5242 74.2864 11.351 1.443
405 135 2 0.5242 75.8003 11.351 1.443
406 136 1 -1.0484 78.1091 11.9369 1.443
407 136 2 0.5242 77.3521 11.351 1.443
408 136 2 0.5242 78.866 11.351 1.443
409 137 1 -1.0484 81.1747 11.9369 1.443
410 137 2 0.5242 80.4178 11.351 1.443
411 137 2 0.5242 81.9317 11.351 1.443
412 138 1 -1.0484 84.2404 11.9369 1.443
413 138 2 0.5242 83.4835 11.351 1.443
414 138 2 0.5242 84.9974 11.351 1.443
415 139 1 -1.0484 87.3061 11.9369 1.443
416 139 2 0.5242 86.5491 11.351 1.443
417 139 2 0.5242 88.063 11.351 1.443
418 140 1 -1.0484 90.3718 11.9369 1.443
419 140 2 0.5242 89.6148 11.351 1.443
420 140 2 0.5242 91.1287 11.351 1.443
421 141 1 -1.0484 93.4374 11.9369 1.443
422 141 2 0.5242 92.6805 11.351 1.443
423 141 2 0.5242 94.1944 11.351 1.443
424 142 1 -1.0484 96.5031 11.9369 1.443
425 142 2 0.5242 95.7462 11.351 1.443
426 142 2 0.5242 97.2601 11.351 1.443
427 143 1 -1.0484 99.5688 11.9369 1.443
428 143 2 0.5242 98.8118 11.351 1.443
429 143 2 0.5242 100.3257 11.351 1.443
430 144 1 -1.0484 102.6345 11.9369 1.443
431 144 2 0.5242 101.8775 11.351 1.443
432 144 2 0.5242 103.3914 11.351 1.443
433 145 1 -1.0484 105.7001 11.9369 1.443
434 145 2 0.5242 104.9432 11.351 1.443
435 145 2 0.5242 106.4571 11.351 1.443
436 146 1 -1.0484 108.7658 11.9369 1.443
437 146 2 0.5242 108.0089 11.351 1.443
438 146 2 0.5242 109.5228 11.351 1.443
439 147 1 -1.0484 111.8315 11.9369 1.443
440 147 2 0.5242 111.0745 11.351 1.443
441 147 2 0.5242 112.5884 11.351 1.443
442 148 1 -1.0484 114.8972 11.9369 1.443
443 148 2 0.5242 114.1402 11.351 1.443
444 148 2 0.5242 115.6541 11.351 1.443
445 149 1 -1.0484 4.5328 15.0462 1.443
446 149 2 0.5242 3.7759 14.4603 1.443
447 149 2 0.5242 5.2898 14.4603 1.443
448 150 1 -1.0484 7.5985 15.0462 1.443
449 150 2 0.5242 6.8416 14.4603 1.443
450 150 2 0.5242 8.3555 14.4603 1.443
451 151 1 -1.0484 10.6642 15.0462 1.443
452 151 2 0.5242 9.9072 14.4603 1.443
453 151 2 0.5242 11.4211 14.4603 1.443
454 152 1 -1.0484 13.7299 15.0462 1.443
455 152 2 0.5242 12.9729 14.4603 1.443
456 152 2 0.5242 14.4868 14.4603 1.443
457 153 1 -1.0484 16.7955 15.0462 1.443
458 153 2 0.5242 16.0386 14.4603 1.443
459 153 2 0.5242 17.5525 14.4603 1.443
460 154 1 -1.0484 19.8612 15.0462 1.443
461 154 2 0.5242 19.1043 14.4603 1.443
462 154 2 0.5242 20.6182 14.4603 1.443
463 155 1 -1.0484 22.9269 15.0462 1.443
464 155 2 0.5242 22.1699 14.4603 1.443
465 155 2 0.5242 23.6838 14.4603 1.443
466 156 1 -1.0484 25.9926 15.0462 1.443
467 156 2 0.5242 25.2356 14.4603 1.443
468 156 2 0.5242 26.7495 14.4603 1.443
469 157 1 -1.0484 29.0582 15.0462 1.443
470 157 2 0.5242 28.3013 14.4603 1.443
471 157 2 0.5242 29.8152 14.4603 1.443
472 158 1 -1.0484 32.1239 15.0462 1.443
473 158 2 0.5242 31.367 14.4603 1.443
474 158 2 0.5242 32.8809 14.4603 1.443
475 159 1 -1.0484 35.1896 15.0462 1.443
476 159 2 0.5242 34.4326 14.4603 1.443
477 159 2 0.5242 35.9465 14.4603 1.443
478 160 1 -1.0484 38.2553 15.0462 1.443
479 160 2 0.5242 37.4983 14.4603 1.443
480 160 2 0.5242 39.0122 14.4603 1.443
481 161 1 -1.0484 41.3209 15.0462 1.443
482 161 2 0.5242 40.564 14.4603 1.443
483 161 2 0.5242 42.0779 14.4603 1.443
484 162 1 -1.0484 44.3866 15.0462 1.443
485 162 2 0.5242 43.6297 14.4603 1.443
486 162 2 0.5242 45.1436 14.4603 1.443
487 163 1 -1.0484 47.4523 15.0462 1.443
488 163 2 0.5242 46.6953 14.4603 1.443
489 163 2 0.5242 48.2092 14.4603 1.443
490 164 1 -1.0484 50.518 15.0462 1.443
491 164 2 0.5242 49.761 14.4603 1.443
492 164 2 0.5242 51.2749 14.4603 1.443
493 165 1 -1.0484 53.5836 15.0462 1.443
494 165 2 0.5242 52.8267 14.4603 1.443
495 165 2 0.5242 54.3406 14.4603 1.443
496 166 1 -1.0484 56.6493 15.0462 1.443
497 166 2 0.5242 55.8924 14.4603 1.443
498 166 2 0.5242 57.4063 14.4603 1.443
499 167 1 -1.0484 59.715 15.0462 1.443
500 167 2 0.5242 58.958 14.4603 1.443
501 167 2 0.5242 60.472 14.4603 1.443
502 168 1 -1.0484 62.7807 15.0462 1.443
503 168 2 0.5242 62.0237 14.4603 1.443
504 168 2 0.5242 63.5376 14.4603 1.443
505 169 1 -1.0484 65.8464 15.0462 1.443
506 169 2 0.5242 65.0894 14.4603 1.443
507 169 2 0.5242 66.6033 14.4603 1.443
508 170 1 -1.0484 68.912 15.0462 1.443
509 170 2 0.5242 68.1551 14.4603 1.443
510 170 2 0.5242 69.669 14.4603 1.443
511 171 1 -1.0484 71.9777 15.0462 1.443
512 171 2 0.5242 71.2208 14.4603 1.443
513 171 2 0.5242 72.7347 14.4603 1.443
514 172 1 -1.0484 75.0434 15.0462 1.443
515 172 2 0.5242 74.2864 14.4603 1.443
516 172 2 0.5242 75.8003 14.4603 1.443
517 173 1 -1.0484 78.1091 15.0462 1.443
518 173 2 0.5242 77.3521 14.4603 1.443
519 173 2 0.5242 78.866 14.4603 1.443
520 174 1 -1.0484 81.1747 15.0462 1.443
521 174 2 0.5242 80.4178 14.4603 1.443
522 174 2 0.5242 81.9317 14.4603 1.443
523 175 1 -1.0484 84.2404 15.0462 1.443
524 175 2 0.5242 83.4835 14.4603 1.443
525 175 2 0.5242 84.9974 14.4603 1.443
526 176 1 -1.0484 87.3061 15.0462 1.443
527 176 2 0.5242 86.5491 14.4603 1.443
528 176 2 0.5242 88.063 14.4603 1.443
529 177 1 -1.0484 90.3718 15.0462 1.443
530 177 2 0.5242 89.6148 14.4603 1.443
531 177 2 0.5242 91.1287 14.4603 1.443
532 178 1 -1.0484 93.4374 15.0462 1.443
533 178 2 0.5242 92.6805 14.4603 1.443
534 178 2 0.5242 94.1944 14.4603 1.443
535 179 1 -1.0484 96.5031 15.0462 1.443
536 179 2 0.5242 95.7462 14.4603 1.443
537 179 2 0.5242 97.2601 14.4603 1.443
538 180 1 -1.0484 99.5688 15.0462 1.443
539 180 2 0.5242 98.8118 14.4603 1.443
540 180 2 0.5242 100.3257 14.4603 1.443
541 181 1 -1.0484 102.6345 15.0462 1.443
542 181 2 0.5242 101.8775 14.4603 1.443
543 181 2 0.5242 103.3914 14.4603 1.443
544 182 1 -1.0484 105.7001 15.0462 1.443
545 182 2 0.5242 104.9432 14.4603 1.443
546 182 2 0.5242 106.4571 14.4603 1.443
547 183 1 -1.0484 108.7658 15.0462 1.443
548 183 2 0.5242 108.0089 14.4603 1.443
549 183 2 0.5242 109.5228 14.4603 1.443
550 184 1 -1.0484 111.8315 15.0462 1.443
551 184 2 0.5242 111.0745 14.4603 1.443
552 184 2 0.5242 112.5884 14.4603 1.443
553 185 1 -1.0484 114.8972 15.0462 1.443
554 185 2 0.5242 114.1402 14.4603 1.443
555 185 2 0.5242 115.6541 14.4603 1.443
556 186 1 -1.0484 4.5328 18.1554 1.443
557 186 2 0.5242 3.7759 17.5695 1.443
558 186 2 0.5242 5.2898 17.5695 1.443
559 187 1 -1.0484 7.5985 18.1554 1.443
560 187 2 0.5242 6.8416 17.5695 1.443
561 187 2 0.5242 8.3555 17.5695 1.443
562 188 1 -1.0484 10.6642 18.1554 1.443
563 188 2 0.5242 9.9072 17.5695 1.443
564 188 2 0.5242 11.4211 17.5695 1.443
565 189 1 -1.0484 13.7299 18.1554 1.443
566 189 2 0.5242 12.9729 17.5695 1.443
567 189 2 0.5242 14.4868 17.5695 1.443
568 190 1 -1.0484 16.7955 18.1554 1.443
569 190 2 0.5242 16.0386 17.5695 1.443
570 190 2 0.5242 17.5525 17.5695 1.443
571 191 1 -1.0484 19.8612 18.1554 1.443
572 191 2 0.5242 19.1043 17.5695 1.443
573 191 2 0.5242 20.6182 17.5695 1.443
574 192 1 -1.0484 22.9269 18.1554 1.443
575 192 2 0.5242 22.1699 17.5695 1.443
576 192 2 0.5242 23.6838 17.5695 1.443
577 193 1 -1.0484 25.9926 18.1554 1.443
578 193 2 0.5242 25.2356 17.5695 1.443
579 193 2 0.5242 26.7495 17.5695 1.443
580 194 1 -1.0484 29.0582 18.1554 1.443
581 194 2 0.5242 28.3013 17.5695 1.443
582 194 2 0.5242 29.8152 17.5695 1.443
583 195 1 -1.0484 32.1239 18.1554 1.443
584 195 2 0.5242 31.367 17.5695 1.443
585 195 2 0.5242 32.8809 17.5695 1.443
586 196 1 -1.0484 35.1896 18.1554 1.443
587 196 2 0.5242 34.4326 17.5695 1.443
588 196 2 0.5242 35.9465 17.5695 1.443
589 197 1 -1.0484 38.2553 18.1554 1.443
590 197 2 0.5242 37.4983 17.5695 1.443
591 197 2 0.5242 39.0122 17.5695 1.443
592 198 1 -1.0484 41.3209 18.1554 1.443
593 198 2 0.5242 40.564 17.5695 1.443
594 198 2 0.5242 42.0779 17.5695 1.443
595 199 1 -1.0484 44.3866 18.1554 1.443
596 199 2 0.5242 43.6297 17.5695 1.443
597 199 2 0.5242 45.1436 17.5695 1.443
598 200 1 -1.0484 47.4523 18.1554 1.443
599 200 2 0.5242 46.6953 17.5695 1.443
600 200 2 0.5242 48.2092 17.5695 1.443
601 201 1 -1.0484 50.518 18.1554 1.443
602 201 2 0.5242 49.761 17.5695 1.443
603 201 2 0.5242 51.2749 17.5695 1.443
604 202 1 -1.0484 53.5836 18.1554 1.443
605 202 2 0.5242 52.8267 17.5695 1.443
606 202 2 0.5242 54.3406 17.5695 1.443
607 203 1 -1.0484 56.6493 18.1554 1.443
608 203 2 0.5242 55.8924 17.5695 1.443
609 203 2 0.5242 57.4063 17.5695 1.443
610 204 1 -1.0484 59.715 18.1554 1.443
611 204 2 0.5242 58.958 17.5695 1.443
612 204 2 0.5242 60.472 17.5695 1.443
613 205 1 -1.0484 62.7807 18.1554 1.443
614 205 2 0.5242 62.0237 17.5695 1.443
615 205 2 0.5242 63.5376 17.5695 1.443
616 206 1 -1.0484 65.8464 18.1554 1.443
617 206 2 0.5242 65.0894 17.5695 1.443
618 206 2 0.5242 66.6033 17.5695 1.443
619 207 1 -1.0484 68.912 18.1554 1.443
620 207 2 0.5242 68.1551 17.5695 1.443
621 207 2 0.5242 69.669 17.5695 1.443
622 208 1 -1.0484 71.9777 18.1554 1.443
623 208 2 0.5242 71.2208 17.5695 1.443
624 208 2 0.5242 72.7347 17.5695 1.443
625 209 1 -1.0484 75.0434 18.1554 1.443
626 209 2 0.5242 74.2864 17.5695 1.443
627 209 2 0.5242 75.8003 17.5695 1.443
628 210 1 -1.0484 78.1091 18.1554 1.443
629 210 2 0.5242 77.3521 17.5695 1.443
630 210 2 0.5242 78.866 17.5695 1.443
631 211 1 -1.0484 81.1747 18.1554 1.443
632 211 2 0.5242 80.4178 17.5695 1.443
633 211 2 0.5242 81.9317 17.5695 1.443
634 212 1 -1.0484 84.2404 18.1554 1.443
635 212 2 0.5242 83.4835 17.5695 1.443
636 212 2 0.5242 84.9974 17.5695 1.443
637 213 1 -1.0484 87.3061 18.1554 1.443
638 213 2 0.5242 86.5491 17.5695 1.443
639 213 2 0.5242 88.063 17.5695 1.443
640 214 1 -1.0484 90.3718 18.1554 1.443
641 214 2 0.5242 89.6148 17.5695 1.443
642 214 2 0.5242 91.1287 17.5695 1.443
643 215 1 -1.0484 93.4374 18.1554 1.443
644 215 2 0.5242 92.6805 17.5695 1.443
645 215 2 0.5242 94.1944 17.5695 1.443
646 216 1 -1.0484 96.5031 18.1554 1.443
647 216 2 0.5242 95.7462 17.5695 1.443
648 216 2 0.5242 97.2601 17.5695 1.443
649 217 1 -1.0484 99.5688 18.1554 1.443
650 217 2 0.5242 98.8118 17.5695 1.443
651 217 2 0.5242 100.3257 17.5695 1.443
652 218 1 -1.0484 102.6345 18.1554 1.443
653 218 2 0.5242 101.8775 17.5695 1.443
654 218 2 0.5242 103.3914 17.5695 1.443
655 219 1 -1.0484 105.7001 18.1554 1.443
656 219 2 0.5242 104.9432 17.5695 1.443
657 219 2 0.5242 106.4571 17.5695 1.443
658 220 1 -1.0484 108.7658 18.1554 1.443
659 220 2 0.5242 108.0089 17.5695 1.443
660 220 2 0.5242 109.5228 17.5695 1.443
661 221 1 -1.0484 111.8315 18.1554 1.443
662 221 2 0.5242 111.0745 17.5695 1.443
663 221 2 0.5242 112.5884 17.5695 1.443
664 222 1 -1.0484 114.8972 18.1554 1.443
665 222 2 0.5242 114.1402 17.5695 1.443
666 222 2 0.5242 115.6541 17.5695 1.443
667 223 1 -1.0484 4.5328 21.2646 1.443
668 223 2 0.5242 3.7759 20.6787 1.443
669 223 2 0.5242 5.2898 20.6787 1.443
670 224 1 -1.0484 7.5985 21.2646 1.443
671 224 2 0.5242 6.8416 20.6787 1.443
672 224 2 0.5242 8.3555 20.6787 1.443
673 225 1 -1.0484 10.6642 21.2646 1.443
674 225 2 0.5242 9.9072 20.6787 1.443
675 225 2 0.5242 11.4211 20.6787 1.443
676 226 1 -1.0484 13.7299 21.2646 1.443
677 226 2 0.5242 12.9729 20.6787 1.443
678 226 2 0.5242 14.4868 20.6787 1.443
679 227 1 -1.0484 16.7955 21.2646 1.443
680 227 2 0.5242 16.0386 20.6787 1.443
681 227 2 0.5242 17.5525 20.6787 1.443
682 228 1 -1.0484 19.8612 21.2646 1.443
683 228 2 0.5242 19.1043 20.6787 1.443
684 228 2 0.5242 20.6182 20.6787 1.443
685 229 1 -1.0484 22.9269 21.2646 1.443
686 229 2 0.5242 22.1699 20.6787 1.443
687 229 2 0.5242 23.6838 20.6787 1.443
688 230 1 -1.0484 25.9926 21.2646 1.443
689 230 2 0.5242 25.2356 20.6787 1.443
690 230 2 0.5242 26.7495 20.6787 1.443
691 231 1 -1.0484 29.0582 21.2646 1.443
692 231 2 0.5242 28.3013 20.6787 1.443
693 231 2 0.5242 29.8152 20.6787 1.443
694 232 1 -1.0484 32.1239 21.2646 1.443
695 232 2 0.5242 31.367 20.6787 1.443
696 232 2 0.5242 32.8809 20.6787 1.443
697 233 1 -1.0484 35.1896 21.2646 1.443
698 233 2 0.5242 34.4326 20.6787 1.443
699 233 2 0.5242 35.9465 20.6787 1.443
700 234 1 -1.0484 38.2553 21.2646 1.443
701 234 2 0.5242 37.4983 20.6787 1.443
702 234 2 0.5242 39.0122 20.6787 1.443
703 235 1 -1.0484 41.3209 21.2646 1.443
704 235 2 0.5242 40.564 20.6787 1.443
705 235 2 0.5242 42.0779 20.6787 1.443
706 236 1 -1.0484 44.3866 21.2646 1.443
707 236 2 0.5242 43.6297 20.6787 1.443
708 236 2 0.5242 45.1436 20.6787 1.443
709 237 1 -1.0484 47.4523 21.2646 1.443
710 237 2 0.5242 46.6953 20.6787 1.443
711 237 2 0.5242 48.2092 20.6787 1.443
712 238 1 -1.0484 50.518 21.2646 1.443
713 238 2 0.5242 49.761 20.6787 1.443
714 238 2 0.5242 51.2749 20.6787 1.443
715 239 1 -1.0484 53.5836 21.2646 1.443
716 239 2 0.5242 52.8267 20.6787 1.443
717 239 2 0.5242 54.3406 20.6787 1.443
718 240 1 -1.0484 56.6493 21.2646 1.443
719 240 2 0.5242 55.8924 20.6787 1.443
720 240 2 0.5242 57.4063 20.6787 1.443
721 241 1 -1.0484 59.715 21.2646 1.443
722 241 2 0.5242 58.958 20.6787 1.443
723 241 2 0.5242 60.472 20.6787 1.443
724 242 1 -1.0484 62.7807 21.2646 1.443
725 242 2 0.5242 62.0237 20.6787 1.443
726 242 2 0.5242 63.5376 20.6787 1.443
727 243 1 -1.0484 65.8464 21.2646 1.443
728 243 2 0.5242 65.0894 20.6787 1.443
729 243 2 0.5242 66.6033 20.6787 1.443
730 244 1 -1.0484 68.912 21.2646 1.443
731 244 2 0.5242 68.1551 20.6787 1.443
732 244 2 0.5242 69.669 20.6787 1.443
733 245 1 -1.0484 71.9777 21.2646 1.443
734 245 2 0.5242 71.2208 20.6787 1.443
735 245 2 0.5242 72.7347 20.6787 1.443
736 246 1 -1.0484 75.0434 21.2646 1.443
737 246 2 0.5242 74.2864 20.6787 1.443
738 246 2 0.5242 75.8003 20.6787 1.443
739 247 1 -1.0484 78.1091 21.2646 1.443
740 247 2 0.5242 77.3521 20.6787 1.443
741 247 2 0.5242 78.866 20.6787 1.443
742 248 1 -1.0484 81.1747 21.2646 1.443
743 248 2 0.5242 80.4178 20.6787 1.443
744 248 2 0.5242 81.9317 20.6787 1.443
745 249 1 -1.0484 84.2404 21.2646 1.443
746 249 2 0.5242 83.4835 20.6787 1.443
747 249 2 0.5242 84.9974 20.6787 1.443
748 250 1 -1.0484 87.3061 21.2646 1.443
749 250 2 0.5242 86.5491 20.6787 1.443
750 250 2 0.5242 88.063 20.6787 1.443
751 251 1 -1.0484 90.3718 21.2646 1.443
752 251 2 0.5242 89.6148 20.6787 1.443
753 251 2 0.5242 91.1287 20.6787 1.443
754 252 1 -1.0484 93.4374 21.2646 1.443
755 252 2 0.5242 92.6805 20.6787 1.443
756 252 2 0.5242 94.1944 20.6787 1.443
757 253 1 -1.0484 96.5031 21.2646 1.443
758 253 2 0.5242 95.7462 20.6787 1.443
759 253 2 0.5242 97.2601 20.6787 1.443
760 254 1 -1.0484 99.5688 21.2646 1.443
761 254 2 0.5242 98.8118 20.6787 1.443
762 254 2 0.5242 100.3257 20.6787 1.443
763 255 1 -1.0484 102.6345 21.2646 1.443
764 255 2 0.5242 101.8775 20.6787 1.443
765 255 2 0.5242 103.3914 20.6787 1.443
766 256 1 -1.0484 105.7001 21.2646 1.443
767 256 2 0.5242 104.9432 20.6787 1.443
768 256 2 0.5242 106.4571 20.6787 1.443
769 257 1 -1.0484 108.7658 21.2646 1.443
770 257 2 0.5242 108.0089 20.6787 1.443
771 257 2 0.5242 109.5228 20.6787 1.443
772 258 1 -1.0484 111.8315 21.2646 1.443
773 258 2 0.5242 111.0745 20.6787 1.443