Start File for LAMMPS    
       
21480 atoms      
13680 bonds      
6840 angles      
       
5 atom types     
1 bond types     
1 angle types     
       
0 132.54 xlo xhi    
0 26.976 ylo yhi    
0 57.718 zlo zhi    
       
Masses       
       
1 15.9994      
2 1.008      
3 22.9898      
4 35.453      
5 12.0107      
       
Bond Coeffs      
       
1 450 0.9572     
       
Angle Coeffs      
       
1 55 104.52     
       
Atoms       
       
1 1 1 -1.0484 1.5754 2.4973 1.443 
2 1 2 0.5242 0.8185 1.9115 1.443 
3 1 2 0.5242 2.3324 1.9115 1.443 
4 2 1 -1.0484 4.7263 2.4973 1.443 
5 2 2 0.5242 3.9693 1.9115 1.443 
6 2 2 0.5242 5.4832 1.9115 1.443 
7 3 1 -1.0484 7.8771 2.4973 1.443 
8 3 2 0.5242 7.1201 1.9115 1.443 
9 3 2 0.5242 8.634 1.9115 1.443 
10 4 1 -1.0484 11.0279 2.4973 1.443 
11 4 2 0.5242 10.271 1.9115 1.443 
12 4 2 0.5242 11.7849 1.9115 1.443 
13 5 1 -1.0484 14.1788 2.4973 1.443 
14 5 2 0.5242 13.4218 1.9115 1.443 
15 5 2 0.5242 14.9357 1.9115 1.443 
16 6 1 -1.0484 17.3296 2.4973 1.443 
17 6 2 0.5242 16.5726 1.9115 1.443 
18 6 2 0.5242 18.0865 1.9115 1.443 
19 7 1 -1.0484 20.4804 2.4973 1.443 
20 7 2 0.5242 19.7235 1.9115 1.443 
21 7 2 0.5242 21.2374 1.9115 1.443 
22 8 1 -1.0484 23.6313 2.4973 1.443 
23 8 2 0.5242 22.8743 1.9115 1.443 
24 8 2 0.5242 24.3882 1.9115 1.443 
25 9 1 -1.0484 26.7821 2.4973 1.443 
26 9 2 0.5242 26.0251 1.9115 1.443 
27 9 2 0.5242 27.539 1.9115 1.443 
28 10 1 -1.0484 29.9329 2.4973 1.443 
29 10 2 0.5242 29.176 1.9115 1.443 
30 10 2 0.5242 30.6899 1.9115 1.443 
31 11 1 -1.0484 33.0838 2.4973 1.443 
32 11 2 0.5242 32.3268 1.9115 1.443 
33 11 2 0.5242 33.8407 1.9115 1.443 
34 12 1 -1.0484 36.2346 2.4973 1.443 
35 12 2 0.5242 35.4776 1.9115 1.443 
36 12 2 0.5242 36.9915 1.9115 1.443 
37 13 1 -1.0484 39.3854 2.4973 1.443 
38 13 2 0.5242 38.6285 1.9115 1.443 
39 13 2 0.5242 40.1424 1.9115 1.443 
40 14 1 -1.0484 42.5363 2.4973 1.443 
41 14 2 0.5242 41.7793 1.9115 1.443 
42 14 2 0.5242 43.2932 1.9115 1.443 
43 15 1 -1.0484 45.6871 2.4973 1.443 
44 15 2 0.5242 44.9301 1.9115 1.443 
45 15 2 0.5242 46.444 1.9115 1.443 
46 16 1 -1.0484 48.8379 2.4973 1.443 
47 16 2 0.5242 48.081 1.9115 1.443 
48 16 2 0.5242 49.5949 1.9115 1.443 
49 17 1 -1.0484 51.9887 2.4973 1.443 
50 17 2 0.5242 51.2318 1.9115 1.443 
51 17 2 0.5242 52.7457 1.9115 1.443 
52 18 1 -1.0484 55.1396 2.4973 1.443 
53 18 2 0.5242 54.3826 1.9115 1.443 
54 18 2 0.5242 55.8965 1.9115 1.443 
55 19 1 -1.0484 1.5754 5.4947 1.443 
56 19 2 0.5242 0.8185 4.9088 1.443 
57 19 2 0.5242 2.3324 4.9088 1.443 
58 20 1 -1.0484 4.7263 5.4947 1.443 
59 20 2 0.5242 3.9693 4.9088 1.443 
60 20 2 0.5242 5.4832 4.9088 1.443 
61 21 1 -1.0484 7.8771 5.4947 1.443 
62 21 2 0.5242 7.1201 4.9088 1.443 
63 21 2 0.5242 8.634 4.9088 1.443 
64 22 1 -1.0484 11.0279 5.4947 1.443 
65 22 2 0.5242 10.271 4.9088 1.443 
66 22 2 0.5242 11.7849 4.9088 1.443 
67 23 1 -1.0484 14.1788 5.4947 1.443 
68 23 2 0.5242 13.4218 4.9088 1.443 
69 23 2 0.5242 14.9357 4.9088 1.443 
70 24 1 -1.0484 17.3296 5.4947 1.443 
71 24 2 0.5242 16.5726 4.9088 1.443 
72 24 2 0.5242 18.0865 4.9088 1.443 
73 25 1 -1.0484 20.4804 5.4947 1.443 
74 25 2 0.5242 19.7235 4.9088 1.443 
75 25 2 0.5242 21.2374 4.9088 1.443 
76 26 1 -1.0484 23.6313 5.4947 1.443 
77 26 2 0.5242 22.8743 4.9088 1.443 
78 26 2 0.5242 24.3882 4.9088 1.443 
79 27 1 -1.0484 26.7821 5.4947 1.443 
80 27 2 0.5242 26.0251 4.9088 1.443 
81 27 2 0.5242 27.539 4.9088 1.443 
82 28 1 -1.0484 29.9329 5.4947 1.443 
83 28 2 0.5242 29.176 4.9088 1.443 
84 28 2 0.5242 30.6899 4.9088 1.443 
85 29 1 -1.0484 33.0838 5.4947 1.443 
86 29 2 0.5242 32.3268 4.9088 1.443 
87 29 2 0.5242 33.8407 4.9088 1.443 
88 30 1 -1.0484 36.2346 5.4947 1.443 
89 30 2 0.5242 35.4776 4.9088 1.443 
90 30 2 0.5242 36.9915 4.9088 1.443 
91 31 1 -1.0484 39.3854 5.4947 1.443 
92 31 2 0.5242 38.6285 4.9088 1.443 
93 31 2 0.5242 40.1424 4.9088 1.443 
94 32 1 -1.0484 42.5363 5.4947 1.443 
95 32 2 0.5242 41.7793 4.9088 1.443 
96 32 2 0.5242 43.2932 4.9088 1.443 
97 33 1 -1.0484 45.6871 5.4947 1.443 
98 33 2 0.5242 44.9301 4.9088 1.443 
99 33 2 0.5242 46.444 4.9088 1.443 
100 34 1 -1.0484 48.8379 5.4947 1.443 
101 34 2 0.5242 48.081 4.9088 1.443 
102 34 2 0.5242 49.5949 4.9088 1.443 
103 35 1 -1.0484 51.9887 5.4947 1.443 
104 35 2 0.5242 51.2318 4.9088 1.443 
105 35 2 0.5242 52.7457 4.9088 1.443 
106 36 1 -1.0484 55.1396 5.4947 1.443 
107 36 2 0.5242 54.3826 4.9088 1.443 
108 36 2 0.5242 55.8965 4.9088 1.443 
109 37 1 -1.0484 1.5754 8.492 1.443 
110 37 2 0.5242 0.8185 7.9061 1.443 
111 37 2 0.5242 2.3324 7.9061 1.443 
112 38 1 -1.0484 4.7263 8.492 1.443 
113 38 2 0.5242 3.9693 7.9061 1.443 
114 38 2 0.5242 5.4832 7.9061 1.443 
115 39 1 -1.0484 7.8771 8.492 1.443 
116 39 2 0.5242 7.1201 7.9061 1.443 
117 39 2 0.5242 8.634 7.9061 1.443 
118 40 1 -1.0484 11.0279 8.492 1.443 
119 40 2 0.5242 10.271 7.9061 1.443 
120 40 2 0.5242 11.7849 7.9061 1.443 
121 41 1 -1.0484 14.1788 8.492 1.443 
122 41 2 0.5242 13.4218 7.9061 1.443 
123 41 2 0.5242 14.9357 7.9061 1.443 
124 42 1 -1.0484 17.3296 8.492 1.443 
125 42 2 0.5242 16.5726 7.9061 1.443 
126 42 2 0.5242 18.0865 7.9061 1.443 
127 43 1 -1.0484 20.4804 8.492 1.443 
128 43 2 0.5242 19.7235 7.9061 1.443 
129 43 2 0.5242 21.2374 7.9061 1.443 
130 44 1 -1.0484 23.6313 8.492 1.443 
131 44 2 0.5242 22.8743 7.9061 1.443 
132 44 2 0.5242 24.3882 7.9061 1.443 
133 45 1 -1.0484 26.7821 8.492 1.443 
134 45 2 0.5242 26.0251 7.9061 1.443 
135 45 2 0.5242 27.539 7.9061 1.443 
136 46 1 -1.0484 29.9329 8.492 1.443 
137 46 2 0.5242 29.176 7.9061 1.443 
138 46 2 0.5242 30.6899 7.9061 1.443 
139 47 1 -1.0484 33.0838 8.492 1.443 
140 47 2 0.5242 32.3268 7.9061 1.443 
141 47 2 0.5242 33.8407 7.9061 1.443 
142 48 1 -1.0484 36.2346 8.492 1.443 
143 48 2 0.5242 35.4776 7.9061 1.443 
144 48 2 0.5242 36.9915 7.9061 1.443 
145 49 1 -1.0484 39.3854 8.492 1.443 
146 49 2 0.5242 38.6285 7.9061 1.443 
147 49 2 0.5242 40.1424 7.9061 1.443 
148 50 1 -1.0484 42.5363 8.492 1.443 
149 50 2 0.5242 41.7793 7.9061 1.443 
150 50 2 0.5242 43.2932 7.9061 1.443 
151 51 1 -1.0484 45.6871 8.492 1.443 
152 51 2 0.5242 44.9301 7.9061 1.443 
153 51 2 0.5242 46.444 7.9061 1.443 
154 52 1 -1.0484 48.8379 8.492 1.443 
155 52 2 0.5242 48.081 7.9061 1.443 
156 52 2 0.5242 49.5949 7.9061 1.443 
157 53 1 -1.0484 51.9887 8.492 1.443 
158 53 2 0.5242 51.2318 7.9061 1.443 
159 53 2 0.5242 52.7457 7.9061 1.443 
160 54 1 -1.0484 55.1396 8.492 1.443 
161 54 2 0.5242 54.3826 7.9061 1.443 
162 54 2 0.5242 55.8965 7.9061 1.443 
163 55 1 -1.0484 1.5754 11.4893 1.443 
164 55 2 0.5242 0.8185 10.9035 1.443 
165 55 2 0.5242 2.3324 10.9035 1.443 
166 56 1 -1.0484 4.7263 11.4893 1.443 
167 56 2 0.5242 3.9693 10.9035 1.443 
168 56 2 0.5242 5.4832 10.9035 1.443 
169 57 1 -1.0484 7.8771 11.4893 1.443 
170 57 2 0.5242 7.1201 10.9035 1.443 
171 57 2 0.5242 8.634 10.9035 1.443 
172 58 1 -1.0484 11.0279 11.4893 1.443 
173 58 2 0.5242 10.271 10.9035 1.443 
174 58 2 0.5242 11.7849 10.9035 1.443 
175 59 1 -1.0484 14.1788 11.4893 1.443 
176 59 2 0.5242 13.4218 10.9035 1.443 
177 59 2 0.5242 14.9357 10.9035 1.443 
178 60 1 -1.0484 17.3296 11.4893 1.443 
179 60 2 0.5242 16.5726 10.9035 1.443 
180 60 2 0.5242 18.0865 10.9035 1.443 
181 61 1 -1.0484 20.4804 11.4893 1.443 
182 61 2 0.5242 19.7235 10.9035 1.443 
183 61 2 0.5242 21.2374 10.9035 1.443 
184 62 1 -1.0484 23.6313 11.4893 1.443 
185 62 2 0.5242 22.8743 10.9035 1.443 
186 62 2 0.5242 24.3882 10.9035 1.443 
187 63 1 -1.0484 26.7821 11.4893 1.443 
188 63 2 0.5242 26.0251 10.9035 1.443 
189 63 2 0.5242 27.539 10.9035 1.443 
190 64 1 -1.0484 29.9329 11.4893 1.443 
191 64 2 0.5242 29.176 10.9035 1.443 
192 64 2 0.5242 30.6899 10.9035 1.443 
193 65 1 -1.0484 33.0838 11.4893 1.443 
194 65 2 0.5242 32.3268 10.9035 1.443 
195 65 2 0.5242 33.8407 10.9035 1.443 
196 66 1 -1.0484 36.2346 11.4893 1.443 
197 66 2 0.5242 35.4776 10.9035 1.443 
198 66 2 0.5242 36.9915 10.9035 1.443 
199 67 1 -1.0484 39.3854 11.4893 1.443 
200 67 2 0.5242 38.6285 10.9035 1.443 
201 67 2 0.5242 40.1424 10.9035 1.443 
202 68 1 -1.0484 42.5363 11.4893 1.443 
203 68 2 0.5242 41.7793 10.9035 1.443 
204 68 2 0.5242 43.2932 10.9035 1.443 
205 69 1 -1.0484 45.6871 11.4893 1.443 
206 69 2 0.5242 44.9301 10.9035 1.443 
207 69 2 0.5242 46.444 10.9035 1.443 
208 70 1 -1.0484 48.8379 11.4893 1.443 
209 70 2 0.5242 48.081 10.9035 1.443 
210 70 2 0.5242 49.5949 10.9035 1.443 
211 71 1 -1.0484 51.9887 11.4893 1.443 
212 71 2 0.5242 51.2318 10.9035 1.443 
213 71 2 0.5242 52.7457 10.9035 1.443 
214 72 1 -1.0484 55.1396 11.4893 1.443 
215 72 2 0.5242 54.3826 10.9035 1.443 
216 72 2 0.5242 55.8965 10.9035 1.443 
217 73 1 -1.0484 1.5754 14.4867 1.443 
218 73 2 0.5242 0.8185 13.9008 1.443 
219 73 2 0.5242 2.3324 13.9008 1.443 
220 74 1 -1.0484 4.7263 14.4867 1.443 
221 74 2 0.5242 3.9693 13.9008 1.443 
222 74 2 0.5242 5.4832 13.9008 1.443 
223 75 1 -1.0484 7.8771 14.4867 1.443 
224 75 2 0.5242 7.1201 13.9008 1.443 
225 75 2 0.5242 8.634 13.9008 1.443 
226 76 1 -1.0484 11.0279 14.4867 1.443 
227 76 2 0.5242 10.271 13.9008 1.443 
228 76 2 0.5242 11.7849 13.9008 1.443 
229 77 1 -1.0484 14.1788 14.4867 1.443 
230 77 2 0.5242 13.4218 13.9008 1.443 
231 77 2 0.5242 14.9357 13.9008 1.443 
232 78 1 -1.0484 17.3296 14.4867 1.443 
233 78 2 0.5242 16.5726 13.9008 1.443 
234 78 2 0.5242 18.0865 13.9008 1.443 
235 79 1 -1.0484 20.4804 14.4867 1.443 
236 79 2 0.5242 19.7235 13.9008 1.443 
237 79 2 0.5242 21.2374 13.9008 1.443 
238 80 1 -1.0484 23.6313 14.4867 1.443 
239 80 2 0.5242 22.8743 13.9008 1.443 
240 80 2 0.5242 24.3882 13.9008 1.443 
241 81 1 -1.0484 26.7821 14.4867 1.443 
242 81 2 0.5242 26.0251 13.9008 1.443 
243 81 2 0.5242 27.539 13.9008 1.443 
244 82 1 -1.0484 29.9329 14.4867 1.443 
245 82 2 0.5242 29.176 13.9008 1.443 
246 82 2 0.5242 30.6899 13.9008 1.443 
247 83 1 -1.0484 33.0838 14.4867 1.443 
248 83 2 0.5242 32.3268 13.9008 1.443 
249 83 2 0.5242 33.8407 13.9008 1.443 
250 84 1 -1.0484 36.2346 14.4867 1.443 
251 84 2 0.5242 35.4776 13.9008 1.443 
252 84 2 0.5242 36.9915 13.9008 1.443 
253 85 1 -1.0484 39.3854 14.4867 1.443 
254 85 2 0.5242 38.6285 13.9008 1.443 
255 85 2 0.5242 40.1424 13.9008 1.443 
256 86 1 -1.0484 42.5363 14.4867 1.443 
257 86 2 0.5242 41.7793 13.9008 1.443 
258 86 2 0.5242 43.2932 13.9008 1.443 
259 87 1 -1.0484 45.6871 14.4867 1.443 
260 87 2 0.5242 44.9301 13.9008 1.443 
261 87 2 0.5242 46.444 13.9008 1.443 
262 88 1 -1.0484 48.8379 14.4867 1.443 
263 88 2 0.5242 48.081 13.9008 1.443 
264 88 2 0.5242 49.5949 13.9008 1.443 
265 89 1 -1.0484 51.9887 14.4867 1.443 
266 89 2 0.5242 51.2318 13.9008 1.443 
267 89 2 0.5242 52.7457 13.9008 1.443 
268 90 1 -1.0484 55.1396 14.4867 1.443 
269 90 2 0.5242 54.3826 13.9008 1.443 
270 90 2 0.5242 55.8965 13.9008 1.443 
271 91 1 -1.0484 1.5754 17.484 1.443 
272 91 2 0.5242 0.8185 16.8981 1.443 
273 91 2 0.5242 2.3324 16.8981 1.443 
274 92 1 -1.0484 4.7263 17.484 1.443 
275 92 2 0.5242 3.9693 16.8981 1.443 
276 92 2 0.5242 5.4832 16.8981 1.443 
277 93 1 -1.0484 7.8771 17.484 1.443 
278 93 2 0.5242 7.1201 16.8981 1.443 
279 93 2 0.5242 8.634 16.8981 1.443 
280 94 1 -1.0484 11.0279 17.484 1.443 
281 94 2 0.5242 10.271 16.8981 1.443 
282 94 2 0.5242 11.7849 16.8981 1.443 
283 95 1 -1.0484 14.1788 17.484 1.443 
284 95 2 0.5242 13.4218 16.8981 1.443 
285 95 2 0.5242 14.9357 16.8981 1.443 
286 96 1 -1.0484 17.3296 17.484 1.443 
287 96 2 0.5242 16.5726 16.8981 1.443 
288 96 2 0.5242 18.0865 16.8981 1.443 
289 97 1 -1.0484 20.4804 17.484 1.443 
290 97 2 0.5242 19.7235 16.8981 1.443 
291 97 2 0.5242 21.2374 16.8981 1.443 
292 98 1 -1.0484 23.6313 17.484 1.443 
293 98 2 0.5242 22.8743 16.8981 1.443 
294 98 2 0.5242 24.3882 16.8981 1.443 
295 99 1 -1.0484 26.7821 17.484 1.443 
296 99 2 0.5242 26.0251 16.8981 1.443 
297 99 2 0.5242 27.539 16.8981 1.443 
298 100 1 -1.0484 29.9329 17.484 1.443 
299 100 2 0.5242 29.176 16.8981 1.443 
300 100 2 0.5242 30.6899 16.8981 1.443 
301 101 1 -1.0484 33.0838 17.484 1.443 
302 101 2 0.5242 32.3268 16.8981 1.443 
303 101 2 0.5242 33.8407 16.8981 1.443 
304 102 1 -1.0484 36.2346 17.484 1.443 
305 102 2 0.5242 35.4776 16.8981 1.443 
306 102 2 0.5242 36.9915 16.8981 1.443 
307 103 1 -1.0484 39.3854 17.484 1.443 
308 103 2 0.5242 38.6285 16.8981 1.443 
309 103 2 0.5242 40.1424 16.8981 1.443 
310 104 1 -1.0484 42.5363 17.484 1.443 
311 104 2 0.5242 41.7793 16.8981 1.443 
312 104 2 0.5242 43.2932 16.8981 1.443 
313 105 1 -1.0484 45.6871 17.484 1.443 
314 105 2 0.5242 44.9301 16.8981 1.443 
315 105 2 0.5242 46.444 16.8981 1.443 
316 106 1 -1.0484 48.8379 17.484 1.443 
317 106 2 0.5242 48.081 16.8981 1.443 
318 106 2 0.5242 49.5949 16.8981 1.443 
319 107 1 -1.0484 51.9887 17.484 1.443 
320 107 2 0.5242 51.2318 16.8981 1.443 
321 107 2 0.5242 52.7457 16.8981 1.443 
322 108 1 -1.0484 55.1396 17.484 1.443 
323 108 2 0.5242 54.3826 16.8981 1.443 
324 108 2 0.5242 55.8965 16.8981 1.443 
325 109 1 -1.0484 1.5754 20.4813 1.443 
326 109 2 0.5242 0.8185 19.8955 1.443 
327 109 2 0.5242 2.3324 19.8955 1.443 
328 110 1 -1.0484 4.7263 20.4813 1.443 
329 110 2 0.5242 3.9693 19.8955 1.443 
330 110 2 0.5242 5.4832 19.8955 1.443 
331 111 1 -1.0484 7.8771 20.4813 1.443 
332 111 2 0.5242 7.1201 19.8955 1.443 
333 111 2 0.5242 8.634 19.8955 1.443 
334 112 1 -1.0484 11.0279 20.4813 1.443 
335 112 2 0.5242 10.271 19.8955 1.443 
336 112 2 0.5242 11.7849 19.8955 1.443 
337 113 1 -1.0484 14.1788 20.4813 1.443 
338 113 2 0.5242 13.4218 19.8955 1.443 
339 113 2 0.5242 14.9357 19.8955 1.443 
340 114 1 -1.0484 17.3296 20.4813 1.443 
341 114 2 0.5242 16.5726 19.8955 1.443 
342 114 2 0.5242 18.0865 19.8955 1.443 
343 115 1 -1.0484 20.4804 20.4813 1.443 
344 115 2 0.5242 19.7235 19.8955 1.443 
345 115 2 0.5242 21.2374 19.8955 1.443 
346 116 1 -1.0484 23.6313 20.4813 1.443 
347 116 2 0.5242 22.8743 19.8955 1.443 
348 116 2 0.5242 24.3882 19.8955 1.443 
349 117 1 -1.0484 26.7821 20.4813 1.443 
350 117 2 0.5242 26.0251 19.8955 1.443 
351 117 2 0.5242 27.539 19.8955 1.443 
352 118 1 -1.0484 29.9329 20.4813 1.443 
353 118 2 0.5242 29.176 19.8955 1.443 
354 118 2 0.5242 30.6899 19.8955 1.443 
355 119 1 -1.0484 33.0838 20.4813 1.443 
356 119 2 0.5242 32.3268 19.8955 1.443 
357 119 2 0.5242 33.8407 19.8955 1.443 
358 120 1 -1.0484 36.2346 20.4813 1.443 
359 120 2 0.5242 35.4776 19.8955 1.443 
360 120 2 0.5242 36.9915 19.8955 1.443 
361 121 1 -1.0484 39.3854 20.4813 1.443 
362 121 2 0.5242 38.6285 19.8955 1.443 
363 121 2 0.5242 40.1424 19.8955 1.443 
364 122 1 -1.0484 42.5363 20.4813 1.443 
365 122 2 0.5242 41.7793 19.8955 1.443 
366 122 2 0.5242 43.2932 19.8955 1.443 
367 123 1 -1.0484 45.6871 20.4813 1.443 
368 123 2 0.5242 44.9301 19.8955 1.443 
369 123 2 0.5242 46.444 19.8955 1.443 
370 124 1 -1.0484 48.8379 20.4813 1.443 
371 124 2 0.5242 48.081 19.8955 1.443 
372 124 2 0.5242 49.5949 19.8955 1.443 
373 125 1 -1.0484 51.9887 20.4813 1.443 
374 125 2 0.5242 51.2318 19.8955 1.443 
375 125 2 0.5242 52.7457 19.8955 1.443 
376 126 1 -1.0484 55.1396 20.4813 1.443 
377 126 2 0.5242 54.3826 19.8955 1.443 
378 126 2 0.5242 55.8965 19.8955 1.443 
379 127 1 -1.0484 1.5754 23.4787 1.443 
380 127 2 0.5242 0.8185 22.8928 1.443 
381 127 2 0.5242 2.3324 22.8928 1.443 
382 128 1 -1.0484 4.7263 23.4787 1.443 
383 128 2 0.5242 3.9693 22.8928 1.443 
384 128 2 0.5242 5.4832 22.8928 1.443 
385 129 1 -1.0484 7.8771 23.4787 1.443 
386 129 2 0.5242 7.1201 22.8928 1.443 
387 129 2 0.5242 8.634 22.8928 1.443 
388 130 1 -1.0484 11.0279 23.4787 1.443 
389 130 2 0.5242 10.271 22.8928 1.443 
390 130 2 0.5242 11.7849 22.8928 1.443 
391 131 1 -1.0484 14.1788 23.4787 1.443 
392 131 2 0.5242 13.4218 22.8928 1.443 
393 131 2 0.5242 14.9357 22.8928 1.443 
394 132 1 -1.0484 17.3296 23.4787 1.443 
395 132 2 0.5242 16.5726 22.8928 1.443 
396 132 2 0.5242 18.0865 22.8928 1.443 
397 133 1 -1.0484 20.4804 23.4787 1.443 
398 133 2 0.5242 19.7235 22.8928 1.443 
399 133 2 0.5242 21.2374 22.8928 1.443 
400 134 1 -1.0484 23.6313 23.4787 1.443 
401 134 2 0.5242 22.8743 22.8928 1.443 
402 134 2 0.5242 24.3882 22.8928 1.443 
403 135 1 -1.0484 26.7821 23.4787 1.443 
404 135 2 0.5242 26.0251 22.8928 1.443 
405 135 2 0.5242 27.539 22.8928 1.443 
406 136 1 -1.0484 29.9329 23.4787 1.443 
407 136 2 0.5242 29.176 22.8928 1.443 
408 136 2 0.5242 30.6899 22.8928 1.443 
409 137 1 -1.0484 33.0838 23.4787 1.443 
410 137 2 0.5242 32.3268 22.8928 1.443 
411 137 2 0.5242 33.8407 22.8928 1.443 
412 138 1 -1.0484 36.2346 23.4787 1.443 
413 138 2 0.5242 35.4776 22.8928 1.443 
414 138 2 0.5242 36.9915 22.8928 1.443 
415 139 1 -1.0484 39.3854 23.4787 1.443 
416 139 2 0.5242 38.6285 22.8928 1.443 
417 139 2 0.5242 40.1424 22.8928 1.443 
418 140 1 -1.0484 42.5363 23.4787 1.443 
419 140 2 0.5242 41.7793 22.8928 1.443 
420 140 2 0.5242 43.2932 22.8928 1.443 
421 141 1 -1.0484 45.6871 23.4787 1.443 
422 141 2 0.5242 44.9301 22.8928 1.443 
423 141 2 0.5242 46.444 22.8928 1.443 
424 142 1 -1.0484 48.8379 23.4787 1.443 
425 142 2 0.5242 48.081 22.8928 1.443 
426 142 2 0.5242 49.5949 22.8928 1.443 
427 143 1 -1.0484 51.9887 23.4787 1.443 
428 143 2 0.5242 51.2318 22.8928 1.443 
429 143 2 0.5242 52.7457 22.8928 1.443 
430 144 1 -1.0484 55.1396 23.4787 1.443 
431 144 2 0.5242 54.3826 22.8928 1.443 
432 144 2 0.5242 55.8965 22.8928 1.443 
433 145 1 -1.0484 1.5754 26.476 1.443 
434 145 2 0.5242 0.8185 25.8901 1.443 
435 145 2 0.5242 2.3324 25.8901 1.443 
436 146 1 -1.0484 4.7263 26.476 1.443 
437 146 2 0.5242 3.9693 25.8901 1.443 
438 146 2 0.5242 5.4832 25.8901 1.443 
439 147 1 -1.0484 7.8771 26.476 1.443 
440 147 2 0.5242 7.1201 25.8901 1.443 
441 147 2 0.5242 8.634 25.8901 1.443 
442 148 1 -1.0484 11.0279 26.476 1.443 
443 148 2 0.5242 10.271 25.8901 1.443 
444 148 2 0.5242 11.7849 25.8901 1.443 
445 149 1 -1.0484 14.1788 26.476 1.443 
446 149 2 0.5242 13.4218 25.8901 1.443 
447 149 2 0.5242 14.9357 25.8901 1.443 
448 150 1 -1.0484 17.3296 26.476 1.443 
449 150 2 0.5242 16.5726 25.8901 1.443 
450 150 2 0.5242 18.0865 25.8901 1.443 
451 151 1 -1.0484 20.4804 26.476 1.443 
452 151 2 0.5242 19.7235 25.8901 1.443 
453 151 2 0.5242 21.2374 25.8901 1.443 
454 152 1 -1.0484 23.6313 26.476 1.443 
455 152 2 0.5242 22.8743 25.8901 1.443 
456 152 2 0.5242 24.3882 25.8901 1.443 
457 153 1 -1.0484 26.7821 26.476 1.443 
458 153 2 0.5242 26.0251 25.8901 1.443 
459 153 2 0.5242 27.539 25.8901 1.443 
460 154 1 -1.0484 29.9329 26.476 1.443 
461 154 2 0.5242 29.176 25.8901 1.443 
462 154 2 0.5242 30.6899 25.8901 1.443 
463 155 1 -1.0484 33.0838 26.476 1.443 
464 155 2 0.5242 32.3268 25.8901 1.443 
465 155 2 0.5242 33.8407 25.8901 1.443 
466 156 1 -1.0484 36.2346 26.476 1.443 
467 156 2 0.5242 35.4776 25.8901 1.443 
468 156 2 0.5242 36.9915 25.8901 1.443 
469 157 1 -1.0484 39.3854 26.476 1.443 
470 157 2 0.5242 38.6285 25.8901 1.443 
471 157 2 0.5242 40.1424 25.8901 1.443 
472 158 1 -1.0484 42.5363 26.476 1.443 
473 158 2 0.5242 41.7793 25.8901 1.443 
474 158 2 0.5242 43.2932 25.8901 1.443 
475 159 1 -1.0484 45.6871 26.476 1.443 
476 159 2 0.5242 44.9301 25.8901 1.443 
477 159 2 0.5242 46.444 25.8901 1.443 
478 160 1 -1.0484 48.8379 26.476 1.443 
479 160 2 0.5242 48.081 25.8901 1.443 
480 160 2 0.5242 49.5949 25.8901 1.443 
481 161 1 -1.0484 51.9887 26.476 1.443 
482 161 2 0.5242 51.2318 25.8901 1.443 
483 161 2 0.5242 52.7457 25.8901 1.443 
484 162 1 -1.0484 55.1396 26.476 1.443 
485 162 2 0.5242 54.3826 25.8901 1.443 
486 162 2 0.5242 55.8965 25.8901 1.443 
487 163 1 -1.0484 1.5754 2.4973 4.3289 
488 163 2 0.5242 0.8185 1.9115 4.3289 
489 163 2 0.5242 2.3324 1.9115 4.3289 
490 164 1 -1.0484 4.7263 2.4973 4.3289 
491 164 2 0.5242 3.9693 1.9115 4.3289 
492 164 2 0.5242 5.4832 1.9115 4.3289 
493 165 1 -1.0484 7.8771 2.4973 4.3289 
494 165 2 0.5242 7.1201 1.9115 4.3289 
495 165 2 0.5242 8.634 1.9115 4.3289 
496 166 1 -1.0484 11.0279 2.4973 4.3289 
497 166 2 0.5242 10.271 1.9115 4.3289 
498 166 2 0.5242 11.7849 1.9115 4.3289 
499 167 1 -1.0484 14.1788 2.4973 4.3289 
500 167 2 0.5242 13.4218 1.9115 4.3289 
501 167 2 0.5242 14.9357 1.9115 4.3289 
502 168 1 -1.0484 17.3296 2.4973 4.3289 
503 168 2 0.5242 16.5726 1.9115 4.3289 
504 168 2 0.5242 18.0865 1.9115 4.3289 
505 169 1 -1.0484 20.4804 2.4973 4.3289 
506 169 2 0.5242 19.7235 1.9115 4.3289 
507 169 2 0.5242 21.2374 1.9115 4.3289 
508 170 1 -1.0484 23.6313 2.4973 4.3289 
509 170 2 0.5242 22.8743 1.9115 4.3289 
510 170 2 0.5242 24.3882 1.9115 4.3289 
511 171 1 -1.0484 26.7821 2.4973 4.3289 
512 171 2 0.5242 26.0251 1.9115 4.3289 
513 171 2 0.5242 27.539 1.9115 4.3289 
514 172 1 -1.0484 29.9329 2.4973 4.3289 
515 172 2 0.5242 29.176 1.9115 4.3289 
516 172 2 0.5242 30.6899 1.9115 4.3289 
517 173 1 -1.0484 33.0838 2.4973 4.3289 
518 173 2 0.5242 32.3268 1.9115 4.3289 
519 173 2 0.5242 33.8407 1.9115 4.3289 
520 174 1 -1.0484 36.2346 2.4973 4.3289 
521 174 2 0.5242 35.4776 1.9115 4.3289 
522 174 2 0.5242 36.9915 1.9115 4.3289 
523 175 1 -1.0484 39.3854 2.4973 4.3289 
524 175 2 0.5242 38.6285 1.9115 4.3289 
525 175 2 0.5242 40.1424 1.9115 4.3289 
526 176 1 -1.0484 42.5363 2.4973 4.3289 
527 176 2 0.5242 41.7793 1.9115 4.3289 
528 176 2 0.5242 43.2932 1.9115 4.3289 
529 177 1 -1.0484 45.6871 2.4973 4.3289 
530 177 2 0.5242 44.9301 1.9115 4.3289 
531 177 2 0.5242 46.444 1.9115 4.3289 
532 178 1 -1.0484 48.8379 2.4973 4.3289 
533 178 2 0.5242 48.081 1.9115 4.3289 
534 178 2 0.5242 49.5949 1.9115 4.3289 
535 179 1 -1.0484 51.9887 2.4973 4.3289 
536 179 2 0.5242 51.2318 1.9115 4.3289 
537 179 2 0.5242 52.7457 1.9115 4.3289 
538 180 1 -1.0484 55.1396 2.4973 4.3289 
539 180 2 0.5242 54.3826 1.9115 4.3289 
540 180 2 0.5242 55.8965 1.9115 4.3289 
541 181 1 -1.0484 1.5754 5.4947 4.3289 
542 181 2 0.5242 0.8185 4.9088 4.3289 
543 181 2 0.5242 2.3324 4.9088 4.3289 
544 182 1 -1.0484 4.7263 5.4947 4.3289 
545 182 2 0.5242 3.9693 4.9088 4.3289 
546 182 2 0.5242 5.4832 4.9088 4.3289 
547 183 1 -1.0484 7.8771 5.4947 4.3289 
548 183 2 0.5242 7.1201 4.9088 4.3289 
549 183 2 0.5242 8.634 4.9088 4.3289 
550 184 1 -1.0484 11.0279 5.4947 4.3289 
551 184 2 0.5242 10.271 4.9088 4.3289 
552 184 2 0.5242 11.7849 4.9088 4.3289 
553 185 1 -1.0484 14.1788 5.4947 4.3289 
554 185 2 0.5242 13.4218 4.9088 4.3289 
555 185 2 0.5242 14.9357 4.9088 4.3289 
556 186 1 -1.0484 17.3296 5.4947 4.3289 
557 186 2 0.5242 16.5726 4.9088 4.3289 
558 186 2 0.5242 18.0865 4.9088 4.3289 
559 187 1 -1.0484 20.4804 5.4947 4.3289 
560 187 2 0.5242 19.7235 4.9088 4.3289 
561 187 2 0.5242 21.2374 4.9088 4.3289 
562 188 1 -1.0484 23.6313 5.4947 4.3289 
563 188 2 0.5242 22.8743 4.9088 4.3289 
564 188 2 0.5242 24.3882 4.9088 4.3289 
565 189 1 -1.0484 26.7821 5.4947 4.3289 
566 189 2 0.5242 26.0251 4.9088 4.3289 
567 189 2 0.5242 27.539 4.9088 4.3289 
568 190 1 -1.0484 29.9329 5.4947 4.3289 
569 190 2 0.5242 29.176 4.9088 4.3289 
570 190 2 0.5242 30.6899 4.9088 4.3289 
571 191 1 -1.0484 33.0838 5.4947 4.3289 
572 191 2 0.5242 32.3268 4.9088 4.3289 
573 191 2 0.5242 33.8407 4.9088 4.3289 
574 192 1 -1.0484 36.2346 5.4947 4.3289 
575 192 2 0.5242 35.4776 4.9088 4.3289 
576 192 2 0.5242 36.9915 4.9088 4.3289 
577 193 1 -1.0484 39.3854 5.4947 4.3289 
578 193 2 0.5242 38.6285 4.9088 4.3289 
579 193 2 0.5242 40.1424 4.9088 4.3289 
580 194 1 -1.0484 42.5363 5.4947 4.3289 
581 194 2 0.5242 41.7793 4.9088 4.3289 
582 194 2 0.5242 43.2932 4.9088 4.3289 
583 195 1 -1.0484 45.6871 5.4947 4.3289 
584 195 2 0.5242 44.9301 4.9088 4.3289 
585 195 2 0.5242 46.444 4.9088 4.3289 
586 196 1 -1.0484 48.8379 5.4947 4.3289 
587 196 2 0.5242 48.081 4.9088 4.3289 
588 196 2 0.5242 49.5949 4.9088 4.3289 
589 197 1 -1.0484 51.9887 5.4947 4.3289 
590 197 2 0.5242 51.2318 4.9088 4.3289 
591 197 2 0.5242 52.7457 4.9088 4.3289 
592 198 1 -1.0484 55.1396 5.4947 4.3289 
593 198 2 0.5242 54.3826 4.9088 4.3289 
594 198 2 0.5242 55.8965 4.9088 4.3289 
595 199 1 -1.0484 1.5754 8.492 4.3289 
596 199 2 0.5242 0.8185 7.9061 4.3289 
597 199 2 0.5242 2.3324 7.9061 4.3289 
598 200 1 -1.0484 4.7263 8.492 4.3289 
599 200 2 0.5242 3.9693 7.9061 4.3289 
600 200 2 0.5242 5.4832 7.9061 4.3289 
601 201 1 -1.0484 7.8771 8.492 4.3289 
602 201 2 0.5242 7.1201 7.9061 4.3289 
603 201 2 0.5242 8.634 7.9061 4.3289 
604 202 1 -1.0484 11.0279 8.492 4.3289 
605 202 2 0.5242 10.271 7.9061 4.3289 
606 202 2 0.5242 11.7849 7.9061 4.3289 
607 203 1 -1.0484 14.1788 8.492 4.3289 
608 203 2 0.5242 13.4218 7.9061 4.3289 
609 203 2 0.5242 14.9357 7.9061 4.3289 
610 204 1 -1.0484 17.3296 8.492 4.3289 
611 204 2 0.5242 16.5726 7.9061 4.3289 
612 204 2 0.5242 18.0865 7.9061 4.3289 
613 205 1 -1.0484 20.4804 8.492 4.3289 
614 205 2 0.5242 19.7235 7.9061 4.3289 
615 205 2 0.5242 21.2374 7.9061 4.3289 
616 206 1 -1.0484 23.6313 8.492 4.3289 
617 206 2 0.5242 22.8743 7.9061 4.3289 
618 206 2 0.5242 24.3882 7.9061 4.3289 
619 207 1 -1.0484 26.7821 8.492 4.3289 
620 207 2 0.5242 26.0251 7.9061 4.3289 
621 207 2 0.5242 27.539 7.9061 4.3289 
622 208 1 -1.0484 29.9329 8.492 4.3289 
623 208 2 0.5242 29.176 7.9061 4.3289 
624 208 2 0.5242 30.6899 7.9061 4.3289 
625 209 1 -1.0484 33.0838 8.492 4.3289 
626 209 2 0.5242 32.3268 7.9061 4.3289 
627 209 2 0.5242 33.8407 7.9061 4.3289 
628 210 1 -1.0484 36.2346 8.492 4.3289 
629 210 2 0.5242 35.4776 7.9061 4.3289 
630 210 2 0.5242 36.9915 7.9061 4.3289 
631 211 1 -1.0484 39.3854 8.492 4.3289 
632 211 2 0.5242 38.6285 7.9061 4.3289 
633 211 2 0.5242 40.1424 7.9061 4.3289 
634 212 1 -1.0484 42.5363 8.492 4.3289 
635 212 2 0.5242 41.7793 7.9061 4.3289 
636 212 2 0.5242 43.2932 7.9061 4.3289 
637 213 1 -1.0484 45.6871 8.492 4.3289 
638 213 2 0.5242 44.9301 7.9061 4.3289 
639 213 2 0.5242 46.444 7.9061 4.3289 
640 214 1 -1.0484 48.8379 8.492 4.3289 
641 214 2 0.5242 48.081 7.9061 4.3289 
642 214 2 0.5242 49.5949 7.9061 4.3289 
643 215 1 -1.0484 51.9887 8.492 4.3289 
644 215 2 0.5242 51.2318 7.9061 4.3289 
645 215 2 0.5242 52.7457 7.9061 4.3289 
646 216 1 -1.0484 55.1396 8.492 4.3289 
647 216 2 0.5242 54.3826 7.9061 4.3289 
648 216 2 0.5242 55.8965 7.9061 4.3289 
649 217 1 -1.0484 1.5754 11.4893 4.3289 
650 217 2 0.5242 0.8185 10.9035 4.3289 
651 217 2 0.5242 2.3324 10.9035 4.3289 
652 218 1 -1.0484 4.7263 11.4893 4.3289 
653 218 2 0.5242 3.9693 10.9035 4.3289 
654 218 2 0.5242 5.4832 10.9035 4.3289 
655 219 1 -1.0484 7.8771 11.4893 4.3289 
656 219 2 0.5242 7.1201 10.9035 4.3289 
657 219 2 0.5242 8.634 10.9035 4.3289 
658 220 1 -1.0484 11.0279 11.4893 4.3289 
659 220 2 0.5242 10.271 10.9035 4.3289 
660 220 2 0.5242 11.7849 10.9035 4.3289 
661 221 1 -1.0484 14.1788 11.4893 4.3289 
662 221 2 0.5242 13.4218 10.9035 4.3289 
663 221 2 0.5242 14.9357 10.9035 4.3289 
664 222 1 -1.0484 17.3296 11.4893 4.3289 
665 222 2 0.5242 16.5726 10.9035 4.3289 
666 222 2 0.5242 18.0865 10.9035 4.3289 
667 223 1 -1.0484 20.4804 11.4893 4.3289 
668 223 2 0.5242 19.7235 10.9035 4.3289 
669 223 2 0.5242 21.2374 10.9035 4.3289 
670 224 1 -1.0484 23.6313 11.4893 4.3289 
671 224 2 0.5242 22.8743 10.9035 4.3289 
672 224 2 0.5242 24.3882 10.9035 4.3289 
673 225 1 -1.0484 26.7821 11.4893 4.3289 
674 225 2 0.5242 26.0251 10.9035 4.3289 
675 225 2 0.5242 27.539 10.9035 4.3289 
676 226 1 -1.0484 29.9329 11.4893 4.3289 
677 226 2 0.5242 29.176 10.9035 4.3289 
678 226 2 0.5242 30.6899 10.9035 4.3289 
679 227 1 -1.0484 33.0838 11.4893 4.3289 
680 227 2 0.5242 32.3268 10.9035 4.3289 
681 227 2 0.5242 33.8407 10.9035 4.3289 
682 228 1 -1.0484 36.2346 11.4893 4.3289 
683 228 2 0.5242 35.4776 10.9035 4.3289 
684 228 2 0.5242 36.9915 10.9035 4.3289 
685 229 1 -1.0484 39.3854 11.4893 4.3289 
686 229 2 0.5242 38.6285 10.9035 4.3289 
687 229 2 0.5242 40.1424 10.9035 4.3289 
688 230 1 -1.0484 42.5363 11.4893 4.3289 
689 230 2 0.5242 41.7793 10.9035 4.3289 
690 230 2 0.5242 43.2932 10.9035 4.3289 
691 231 1 -1.0484 45.6871 11.4893 4.3289 
692 231 2 0.5242 44.9301 10.9035 4.3289 
693 231 2 0.5242 46.444 10.9035 4.3289 
694 232 1 -1.0484 48.8379 11.4893 4.3289 
695 232 2 0.5242 48.081 10.9035 4.3289 
696 232 2 0.5242 49.5949 10.9035 4.3289 
697 233 1 -1.0484 51.9887 11.4893 4.3289 
698 233 2 0.5242 51.2318 10.9035 4.3289 
699 233 2 0.5242 52.7457 10.9035 4.3289 
700 234 1 -1.0484 55.1396 11.4893 4.3289 
701 234 2 0.5242 54.3826 10.9035 4.3289 
702 234 2 0.5242 55.8965 10.9035 4.3289 
703 235 1 -1.0484 1.5754 14.4867 4.3289 
704 235 2 0.5242 0.8185 13.9008 4.3289 
705 235 2 0.5242 2.3324 13.9008 4.3289 
706 236 1 -1.0484 4.7263 14.4867 4.3289 
707 236 2 0.5242 3.9693 13.9008 4.3289 
708 236 2 0.5242 5.4832 13.9008 4.3289 
709 237 1 -1.0484 7.8771 14.4867 4.3289 
710 237 2 0.5242 7.1201 13.9008 4.3289 
711 237 2 0.5242 8.634 13.9008 4.3289 
712 238 1 -1.0484 11.0279 14.4867 4.3289 
713 238 2 0.5242 10.271 13.9008 4.3289 
714 238 2 0.5242 11.7849 13.9008 4.3289 
715 239 1 -1.0484 14.1788 14.4867 4.3289 
716 239 2 0.5242 13.4218 13.9008 4.3289 
717 239 2 0.5242 14.9357 13.9008 4.3289 
718 240 1 -1.0484 17.3296 14.4867 4.3289 
719 240 2 0.5242 16.5726 13.9008 4.3289 
720 240 2 0.5242 18.0865 13.9008 4.3289 
721 241 1 -1.0484 20.4804 14.4867 4.3289 
722 241 2 0.5242 19.7235 13.9008 4.3289 
723 241 2 0.5242 21.2374 13.9008 4.3289 
724 242 1 -1.0484 23.6313 14.4867 4.3289 
725 242 2 0.5242 22.8743 13.9008 4.3289 
726 242 2 0.5242 24.3882 13.9008 4.3289 
727 243 1 -1.0484 26.7821 14.4867 4.3289 
728 243 2 0.5242 26.0251 13.9008 4.3289 
729 243 2 0.5242 27.539 13.9008 4.3289 
730 244 1 -1.0484 29.9329 14.4867 4.3289 
731 244 2 0.5242 29.176 13.9008 4.3289 
732 244 2 0.5242 30.6899 13.9008 4.3289 
733 245 1 -1.0484 33.0838 14.4867 4.3289 
734 245 2 0.5242 32.3268 13.9008 4.3289 
735 245 2 0.5242 33.8407 13.9008 4.3289 
736 246 1 -1.0484 36.2346 14.4867 4.3289 
737 246 2 0.5242 35.4776 13.9008 4.3289 
738 246 2 0.5242 36.9915 13.9008 4.3289 
739 247 1 -1.0484 39.3854 14.4867 4.3289 
740 247 2 0.5242 38.6285 13.9008 4.3289 
741 247 2 0.5242 40.1424 13.9008 4.3289 
742 248 1 -1.0484 42.5363 14.4867 4.3289 
743 248 2 0.5242 41.7793 13.9008 4.3289 
744 248 2 0.5242 43.2932 13.9008 4.3289 
745 249 1 -1.0484 45.6871 14.4867 4.3289 
746 249 2 0.5242 44.9301 13.9008 4.3289 
747 249 2 0.5242 46.444 13.9008 4.3289 
748 250 1 -1.0484 48.8379 14.4867 4.3289 
749 250 2 0.5242 48.081 13.9008 4.3289 
750 250 2 0.5242 49.5949 13.9008 4.3289 
751 251 1 -1.0484 51.9887 14.4867 4.3289 